
     Program BANDS v.6.3MaX starts on 23Dec2018 at  5: 5:50 

     This program is part of the open-source Quantum ESPRESSO suite
     for quantum simulation of materials; please cite
         "P. Giannozzi et al., J. Phys.:Condens. Matter 21 395502 (2009);
         "P. Giannozzi et al., J. Phys.:Condens. Matter 29 465901 (2017);
          URL http://www.quantum-espresso.org", 
     in publications or presentations arising from this work. More details at
     http://www.quantum-espresso.org/quote

     Serial version

     Reading data from directory:
     ./output/pwscf.save/

     IMPORTANT: XC functional enforced from input :
     Exchange-correlation      = PZ ( 1  1  0  0 0 0)
     Any further DFT definition will be discarded
     Please, verify this is what you really want


     G-vector sticks info
     --------------------
     sticks:   dense  smooth     PW     G-vecs:    dense   smooth      PW
     Sum         367     367    121                 4645     4645     869

     high-symmetry point: -1.0000 0.5000 0.0000   x coordinate   0.0000
     high-symmetry point:  0.0000 0.0000 0.0000   x coordinate   1.1180
     high-symmetry point: -1.0000 0.0000 0.0000   x coordinate   2.1180
     high-symmetry point: -1.0000 0.5000 0.0000   x coordinate   2.6180
     high-symmetry point: -0.5000 0.5000 0.5000   x coordinate   3.3251
     high-symmetry point:  0.0000 0.0000 0.0000   x coordinate   4.1912

     Plottable bands (eV) written to file bands.dat.gnu
     Bands written to file bands.dat

 **************************************************************************

                    xk=(  -1.00000,   0.50000,   0.00000  )

     zone border point and non-symmorphic group 
     symmetry decomposition not available

 **************************************************************************

 **************************************************************************

                    xk=(  -0.96667,   0.48333,   0.00000  )

     point group C_s (m)    
     there are  2 classes
     the character table:

       E     s    
A'     1.00  1.00
A''    1.00 -1.00

     the symmetry operations in each class and the name of the first element:

     E        1
                                                                 
     s        2
                                                                 

     Band symmetry, C_s (m)     point group:

     e(  1 -  1) =      0.33889  eV     1   --> A'             
     e(  2 -  2) =      0.71657  eV     1   --> A''            
     e(  3 -  3) =      3.74740  eV     1   --> A'             
     e(  4 -  4) =      4.02821  eV     1   --> A''            
     e(  5 -  5) =     12.97259  eV     1   --> A''            
     e(  6 -  6) =     13.15442  eV     1   --> A'             
     e(  7 -  7) =     14.55067  eV     1   --> A''            
     e(  8 -  8) =     14.95601  eV     1   --> A'             
     e(  9 -  9) =     20.58793  eV     1   --> A'             
     e( 10 - 10) =     21.17684  eV     1   --> A''            
     e( 11 - 11) =     23.79031  eV     1   --> A''            
     e( 12 - 12) =     24.43583  eV     1   --> A'             
     e( 13 - 13) =     26.65542  eV     1   --> A''            
     e( 14 - 14) =     27.27411  eV     1   --> A'             
     e( 15 - 15) =     29.42151  eV     1   --> A'             
     e( 16 - 16) =     30.09174  eV     1   --> A''            

 **************************************************************************

 **************************************************************************

                    xk=(  -0.93333,   0.46667,   0.00000  )

     Band symmetry, C_s (m)     point group:

     e(  1 -  1) =      0.11803  eV     1   --> A'             
     e(  2 -  2) =      0.91048  eV     1   --> A''            
     e(  3 -  3) =      3.67265  eV     1   --> A'             
     e(  4 -  4) =      4.19945  eV     1   --> A''            
     e(  5 -  5) =     12.84854  eV     1   --> A''            
     e(  6 -  6) =     13.06610  eV     1   --> A'             
     e(  7 -  7) =     14.41919  eV     1   --> A''            
     e(  8 -  8) =     15.37848  eV     1   --> A'             
     e(  9 -  9) =     20.21546  eV     1   --> A'             
     e( 10 - 10) =     21.31973  eV     1   --> A''            
     e( 11 - 11) =     23.60051  eV     1   --> A''            
     e( 12 - 12) =     24.78175  eV     1   --> A'             
     e( 13 - 13) =     26.28907  eV     1   --> A''            
     e( 14 - 14) =     27.46153  eV     1   --> A'             
     e( 15 - 15) =     29.30059  eV     1   --> A'             
     e( 16 - 16) =     29.83027  eV     1   --> A''            

 **************************************************************************

 **************************************************************************

                    xk=(  -0.90000,   0.45000,   0.00000  )

     Band symmetry, C_s (m)     point group:

     e(  1 -  1) =     -0.12587  eV     1   --> A'             
     e(  2 -  2) =      1.11425  eV     1   --> A''            
     e(  3 -  3) =      3.64391  eV     1   --> A'             
     e(  4 -  4) =      4.38449  eV     1   --> A''            
     e(  5 -  5) =     12.73630  eV     1   --> A''            
     e(  6 -  6) =     12.91750  eV     1   --> A'             
     e(  7 -  7) =     14.30177  eV     1   --> A''            
     e(  8 -  8) =     15.88411  eV     1   --> A'             
     e(  9 -  9) =     19.82759  eV     1   --> A'             
     e( 10 - 10) =     21.30669  eV     1   --> A''            
     e( 11 - 11) =     23.55791  eV     1   --> A''            
     e( 12 - 12) =     25.07880  eV     1   --> A'             
     e( 13 - 13) =     25.91773  eV     1   --> A''            
     e( 14 - 14) =     27.50266  eV     1   --> A'             
     e( 15 - 15) =     29.18892  eV     1   --> A''            
     e( 16 - 16) =     29.41159  eV     1   --> A'             

 **************************************************************************

 **************************************************************************

                    xk=(  -0.86667,   0.43333,   0.00000  )

     Band symmetry, C_s (m)     point group:

     e(  1 -  1) =     -0.38714  eV     1   --> A'             
     e(  2 -  2) =      1.32780  eV     1   --> A''            
     e(  3 -  3) =      3.65643  eV     1   --> A'             
     e(  4 -  4) =      4.58240  eV     1   --> A''            
     e(  5 -  5) =     12.63606  eV     1   --> A''            
     e(  6 -  6) =     12.74745  eV     1   --> A'             
     e(  7 -  7) =     14.19783  eV     1   --> A''            
     e(  8 -  8) =     16.42739  eV     1   --> A'             
     e(  9 -  9) =     19.43891  eV     1   --> A'             
     e( 10 - 10) =     21.13782  eV     1   --> A''            
     e( 11 - 11) =     23.65646  eV     1   --> A''            
     e( 12 - 12) =     25.28162  eV     1   --> A'             
     e( 13 - 13) =     25.55890  eV     1   --> A''            
     e( 14 - 14) =     27.46837  eV     1   --> A'             
     e( 15 - 15) =     28.52334  eV     1   --> A''            
     e( 16 - 16) =     29.67175  eV     1   --> A'             

 **************************************************************************

 **************************************************************************

                    xk=(  -0.83333,   0.41667,   0.00000  )

     Band symmetry, C_s (m)     point group:

     e(  1 -  1) =     -0.65995  eV     1   --> A'             
     e(  2 -  2) =      1.55119  eV     1   --> A''            
     e(  3 -  3) =      3.70523  eV     1   --> A'             
     e(  4 -  4) =      4.79215  eV     1   --> A''            
     e(  5 -  5) =     12.54980  eV     1   --> A''            
     e(  6 -  6) =     12.57398  eV     1   --> A'             
     e(  7 -  7) =     14.10756  eV     1   --> A''            
     e(  8 -  8) =     16.97770  eV     1   --> A'             
     e(  9 -  9) =     19.07073  eV     1   --> A'             
     e( 10 - 10) =     20.86424  eV     1   --> A''            
     e( 11 - 11) =     23.83318  eV     1   --> A''            
     e( 12 - 12) =     25.23742  eV     1   --> A''            
     e( 13 - 13) =     25.34985  eV     1   --> A'             
     e( 14 - 14) =     27.48204  eV     1   --> A'             
     e( 15 - 15) =     27.85755  eV     1   --> A''            
     e( 16 - 16) =     29.88808  eV     1   --> A'             

 **************************************************************************

 **************************************************************************

                    xk=(  -0.80000,   0.40000,   0.00000  )

     Band symmetry, C_s (m)     point group:

     e(  1 -  1) =     -0.93930  eV     1   --> A'             
     e(  2 -  2) =      1.78437  eV     1   --> A''            
     e(  3 -  3) =      3.78548  eV     1   --> A'             
     e(  4 -  4) =      5.01243  eV     1   --> A''            
     e(  5 -  5) =     12.40425  eV     1   --> A'             
     e(  6 -  6) =     12.47800  eV     1   --> A''            
     e(  7 -  7) =     14.03007  eV     1   --> A''            
     e(  8 -  8) =     17.47588  eV     1   --> A'             
     e(  9 -  9) =     18.77376  eV     1   --> A'             
     e( 10 - 10) =     20.53347  eV     1   --> A''            
     e( 11 - 11) =     23.98550  eV     1   --> A''            
     e( 12 - 12) =     25.01053  eV     1   --> A''            
     e( 13 - 13) =     25.27346  eV     1   --> A'             
     e( 14 - 14) =     27.18759  eV     1   --> A''            
     e( 15 - 15) =     27.59967  eV     1   --> A'             
     e( 16 - 16) =     29.84389  eV     1   --> A'             

 **************************************************************************

 **************************************************************************

                    xk=(  -0.76667,   0.38333,   0.00000  )

     Band symmetry, C_s (m)     point group:

     e(  1 -  1) =     -1.22091  eV     1   --> A'             
     e(  2 -  2) =      2.02733  eV     1   --> A''            
     e(  3 -  3) =      3.89307  eV     1   --> A'             
     e(  4 -  4) =      5.24179  eV     1   --> A''            
     e(  5 -  5) =     12.24255  eV     1   --> A'             
     e(  6 -  6) =     12.42234  eV     1   --> A''            
     e(  7 -  7) =     13.96465  eV     1   --> A''            
     e(  8 -  8) =     17.71263  eV     1   --> A'             
     e(  9 -  9) =     18.74969  eV     1   --> A'             
     e( 10 - 10) =     20.17509  eV     1   --> A''            
     e( 11 - 11) =     23.96847  eV     1   --> A''            
     e( 12 - 12) =     24.99372  eV     1   --> A''            
     e( 13 - 13) =     25.09241  eV     1   --> A'             
     e( 14 - 14) =     26.52125  eV     1   --> A''            
     e( 15 - 15) =     27.79675  eV     1   --> A'             
     e( 16 - 16) =     29.54916  eV     1   --> A'             

 **************************************************************************

 **************************************************************************

                    xk=(  -0.73333,   0.36667,   0.00000  )

     Band symmetry, C_s (m)     point group:

     e(  1 -  1) =     -1.50120  eV     1   --> A'             
     e(  2 -  2) =      2.28001  eV     1   --> A''            
     e(  3 -  3) =      4.02478  eV     1   --> A'             
     e(  4 -  4) =      5.47854  eV     1   --> A''            
     e(  5 -  5) =     12.09114  eV     1   --> A'             
     e(  6 -  6) =     12.38417  eV     1   --> A''            
     e(  7 -  7) =     13.91017  eV     1   --> A''            
     e(  8 -  8) =     17.54247  eV     1   --> A'             
     e(  9 -  9) =     19.14090  eV     1   --> A'             
     e( 10 - 10) =     19.80692  eV     1   --> A''            
     e( 11 - 11) =     23.76704  eV     1   --> A''            
     e( 12 - 12) =     24.85896  eV     1   --> A'             
     e( 13 - 13) =     25.17965  eV     1   --> A''            
     e( 14 - 14) =     25.87070  eV     1   --> A''            
     e( 15 - 15) =     28.01179  eV     1   --> A'             
     e( 16 - 16) =     29.15992  eV     1   --> A'             

 **************************************************************************

 **************************************************************************

                    xk=(  -0.70000,   0.35000,  -0.00000  )

     Band symmetry, C_s (m)     point group:

     e(  1 -  1) =     -1.77740  eV     1   --> A'             
     e(  2 -  2) =      2.54264  eV     1   --> A''            
     e(  3 -  3) =      4.17794  eV     1   --> A'             
     e(  4 -  4) =      5.72093  eV     1   --> A''            
     e(  5 -  5) =     11.95145  eV     1   --> A'             
     e(  6 -  6) =     12.36570  eV     1   --> A''            
     e(  7 -  7) =     13.86538  eV     1   --> A''            
     e(  8 -  8) =     17.22161  eV     1   --> A'             
     e(  9 -  9) =     19.43925  eV     1   --> A''            
     e( 10 - 10) =     19.68046  eV     1   --> A'             
     e( 11 - 11) =     23.49134  eV     1   --> A''            
     e( 12 - 12) =     24.61342  eV     1   --> A'             
     e( 13 - 13) =     25.14264  eV     1   --> A''            
     e( 14 - 14) =     25.54453  eV     1   --> A''            
     e( 15 - 15) =     28.06566  eV     1   --> A'             
     e( 16 - 16) =     28.90205  eV     1   --> A'             

 **************************************************************************

 **************************************************************************

                    xk=(  -0.66667,   0.33333,   0.00000  )

     Band symmetry, C_s (m)     point group:

     e(  1 -  1) =     -2.04737  eV     1   --> A'             
     e(  2 -  2) =      2.81507  eV     1   --> A''            
     e(  3 -  3) =      4.35033  eV     1   --> A'             
     e(  4 -  4) =      5.96678  eV     1   --> A''            
     e(  5 -  5) =     11.82427  eV     1   --> A'             
     e(  6 -  6) =     12.36840  eV     1   --> A''            
     e(  7 -  7) =     13.82845  eV     1   --> A''            
     e(  8 -  8) =     16.86749  eV     1   --> A'             
     e(  9 -  9) =     19.07831  eV     1   --> A''            
     e( 10 - 10) =     20.23593  eV     1   --> A'             
     e( 11 - 11) =     23.19313  eV     1   --> A''            
     e( 12 - 12) =     24.38806  eV     1   --> A'             
     e( 13 - 13) =     24.53130  eV     1   --> A''            
     e( 14 - 14) =     25.83073  eV     1   --> A''            
     e( 15 - 15) =     27.72927  eV     1   --> A'             
     e( 16 - 16) =     29.02766  eV     1   --> A'             

 **************************************************************************

 **************************************************************************

                    xk=(  -0.63333,   0.31667,  -0.00000  )

     Band symmetry, C_s (m)     point group:

     e(  1 -  1) =     -2.30941  eV     1   --> A'             
     e(  2 -  2) =      3.09702  eV     1   --> A''            
     e(  3 -  3) =      4.53993  eV     1   --> A'             
     e(  4 -  4) =      6.21379  eV     1   --> A''            
     e(  5 -  5) =     11.71006  eV     1   --> A'             
     e(  6 -  6) =     12.39402  eV     1   --> A''            
     e(  7 -  7) =     13.79730  eV     1   --> A''            
     e(  8 -  8) =     16.50630  eV     1   --> A'             
     e(  9 -  9) =     18.72780  eV     1   --> A''            
     e( 10 - 10) =     20.75120  eV     1   --> A'             
     e( 11 - 11) =     22.88559  eV     1   --> A''            
     e( 12 - 12) =     23.90955  eV     1   --> A''            
     e( 13 - 13) =     24.21524  eV     1   --> A'             
     e( 14 - 14) =     26.14064  eV     1   --> A''            
     e( 15 - 15) =     27.22215  eV     1   --> A'             
     e( 16 - 16) =     29.33160  eV     1   --> A'             

 **************************************************************************

 **************************************************************************

                    xk=(  -0.60000,   0.30000,   0.00000  )

     Band symmetry, C_s (m)     point group:

     e(  1 -  1) =     -2.56215  eV     1   --> A'             
     e(  2 -  2) =      3.38882  eV     1   --> A''            
     e(  3 -  3) =      4.74542  eV     1   --> A'             
     e(  4 -  4) =      6.45953  eV     1   --> A''            
     e(  5 -  5) =     11.60929  eV     1   --> A'             
     e(  6 -  6) =     12.44482  eV     1   --> A''            
     e(  7 -  7) =     13.76953  eV     1   --> A''            
     e(  8 -  8) =     16.14790  eV     1   --> A'             
     e(  9 -  9) =     18.39431  eV     1   --> A''            
     e( 10 - 10) =     21.17338  eV     1   --> A'             
     e( 11 - 11) =     22.56012  eV     1   --> A''            
     e( 12 - 12) =     23.32376  eV     1   --> A''            
     e( 13 - 13) =     24.13866  eV     1   --> A'             
     e( 14 - 14) =     26.42174  eV     1   --> A''            
     e( 15 - 15) =     26.69201  eV     1   --> A'             
     e( 16 - 16) =     29.68893  eV     1   --> A'             

 **************************************************************************

 **************************************************************************

                    xk=(  -0.56667,   0.28333,  -0.00000  )

     Band symmetry, C_s (m)     point group:

     e(  1 -  1) =     -2.80458  eV     1   --> A'             
     e(  2 -  2) =      3.69012  eV     1   --> A''            
     e(  3 -  3) =      4.96524  eV     1   --> A'             
     e(  4 -  4) =      6.70146  eV     1   --> A''            
     e(  5 -  5) =     11.52188  eV     1   --> A'             
     e(  6 -  6) =     12.52254  eV     1   --> A''            
     e(  7 -  7) =     13.74219  eV     1   --> A''            
     e(  8 -  8) =     15.79431  eV     1   --> A'             
     e(  9 -  9) =     18.08044  eV     1   --> A''            
     e( 10 - 10) =     21.44023  eV     1   --> A'             
     e( 11 - 11) =     22.17996  eV     1   --> A''            
     e( 12 - 12) =     22.81440  eV     1   --> A''            
     e( 13 - 13) =     24.18955  eV     1   --> A'             
     e( 14 - 14) =     26.19936  eV     1   --> A'             
     e( 15 - 15) =     26.63236  eV     1   --> A''            
     e( 16 - 16) =     29.90435  eV     1   --> A''            

 **************************************************************************

 **************************************************************************

                    xk=(  -0.53333,   0.26667,  -0.00000  )

     Band symmetry, C_s (m)     point group:

     e(  1 -  1) =     -3.03585  eV     1   --> A'             
     e(  2 -  2) =      4.00059  eV     1   --> A''            
     e(  3 -  3) =      5.19792  eV     1   --> A'             
     e(  4 -  4) =      6.93690  eV     1   --> A''            
     e(  5 -  5) =     11.44804  eV     1   --> A'             
     e(  6 -  6) =     12.62847  eV     1   --> A''            
     e(  7 -  7) =     13.71180  eV     1   --> A''            
     e(  8 -  8) =     15.44674  eV     1   --> A'             
     e(  9 -  9) =     17.78888  eV     1   --> A''            
     e( 10 - 10) =     21.52330  eV     1   --> A'             
     e( 11 - 11) =     21.70378  eV     1   --> A''            
     e( 12 - 12) =     22.42621  eV     1   --> A''            
     e( 13 - 13) =     24.31121  eV     1   --> A'             
     e( 14 - 14) =     25.84218  eV     1   --> A'             
     e( 15 - 15) =     26.71259  eV     1   --> A''            
     e( 16 - 16) =     29.64687  eV     1   --> A''            

 **************************************************************************

 **************************************************************************

                    xk=(  -0.50000,   0.25000,   0.00000  )

     Band symmetry, C_s (m)     point group:

     e(  1 -  1) =     -3.25526  eV     1   --> A'             
     e(  2 -  2) =      4.32016  eV     1   --> A''            
     e(  3 -  3) =      5.44240  eV     1   --> A'             
     e(  4 -  4) =      7.16360  eV     1   --> A''            
     e(  5 -  5) =     11.38774  eV     1   --> A'             
     e(  6 -  6) =     12.76371  eV     1   --> A''            
     e(  7 -  7) =     13.67452  eV     1   --> A''            
     e(  8 -  8) =     15.10657  eV     1   --> A'             
     e(  9 -  9) =     17.52398  eV     1   --> A''            
     e( 10 - 10) =     21.15840  eV     1   --> A''            
     e( 11 - 11) =     21.45419  eV     1   --> A'             
     e( 12 - 12) =     22.13665  eV     1   --> A''            
     e( 13 - 13) =     24.27286  eV     1   --> A'             
     e( 14 - 14) =     25.82828  eV     1   --> A'             
     e( 15 - 15) =     26.61387  eV     1   --> A''            
     e( 16 - 16) =     29.58130  eV     1   --> A''            

 **************************************************************************

 **************************************************************************

                    xk=(  -0.46667,   0.23333,   0.00000  )

     Band symmetry, C_s (m)     point group:

     e(  1 -  1) =     -3.46220  eV     1   --> A'             
     e(  2 -  2) =      4.64843  eV     1   --> A''            
     e(  3 -  3) =      5.69732  eV     1   --> A'             
     e(  4 -  4) =      7.37953  eV     1   --> A''            
     e(  5 -  5) =     11.34107  eV     1   --> A'             
     e(  6 -  6) =     12.92842  eV     1   --> A''            
     e(  7 -  7) =     13.62785  eV     1   --> A''            
     e(  8 -  8) =     14.77500  eV     1   --> A'             
     e(  9 -  9) =     17.28932  eV     1   --> A''            
     e( 10 - 10) =     20.59362  eV     1   --> A''            
     e( 11 - 11) =     21.28576  eV     1   --> A'             
     e( 12 - 12) =     21.90246  eV     1   --> A''            
     e( 13 - 13) =     23.97589  eV     1   --> A'             
     e( 14 - 14) =     26.21015  eV     1   --> A'             
     e( 15 - 15) =     26.34479  eV     1   --> A''            
     e( 16 - 16) =     29.70363  eV     1   --> A''            

 **************************************************************************

 **************************************************************************

                    xk=(  -0.43333,   0.21667,   0.00000  )

     Band symmetry, C_s (m)     point group:

     e(  1 -  1) =     -3.65630  eV     1   --> A'             
     e(  2 -  2) =      4.98481  eV     1   --> A''            
     e(  3 -  3) =      5.96125  eV     1   --> A'             
     e(  4 -  4) =      7.58289  eV     1   --> A''            
     e(  5 -  5) =     11.30743  eV     1   --> A'             
     e(  6 -  6) =     13.11872  eV     1   --> A''            
     e(  7 -  7) =     13.57086  eV     1   --> A''            
     e(  8 -  8) =     14.45174  eV     1   --> A'             
     e(  9 -  9) =     17.08762  eV     1   --> A''            
     e( 10 - 10) =     20.02818  eV     1   --> A''            
     e( 11 - 11) =     21.05583  eV     1   --> A'             
     e( 12 - 12) =     21.70239  eV     1   --> A''            
     e( 13 - 13) =     23.57625  eV     1   --> A'             
     e( 14 - 14) =     25.95823  eV     1   --> A''            
     e( 15 - 15) =     26.79630  eV     1   --> A'             
     e( 16 - 16) =     29.95058  eV     1   --> A''            

 **************************************************************************

 **************************************************************************

                    xk=(  -0.40000,   0.20000,  -0.00000  )

     Band symmetry, C_s (m)     point group:

     e(  1 -  1) =     -3.83714  eV     1   --> A'             
     e(  2 -  2) =      5.32866  eV     1   --> A''            
     e(  3 -  3) =      6.23273  eV     1   --> A'             
     e(  4 -  4) =      7.77246  eV     1   --> A''            
     e(  5 -  5) =     11.28670  eV     1   --> A'             
     e(  6 -  6) =     13.30653  eV     1   --> A''            
     e(  7 -  7) =     13.52752  eV     1   --> A''            
     e(  8 -  8) =     14.13719  eV     1   --> A'             
     e(  9 -  9) =     16.92055  eV     1   --> A''            
     e( 10 - 10) =     19.47299  eV     1   --> A''            
     e( 11 - 11) =     20.78527  eV     1   --> A'             
     e( 12 - 12) =     21.52995  eV     1   --> A''            
     e( 13 - 13) =     23.16723  eV     1   --> A'             
     e( 14 - 14) =     25.50910  eV     1   --> A''            
     e( 15 - 15) =     27.47192  eV     1   --> A'             
     e( 16 - 16) =     30.22607  eV     1   --> A''            

 **************************************************************************

 **************************************************************************

                    xk=(  -0.36667,   0.18333,   0.00000  )

     Band symmetry, C_s (m)     point group:

     e(  1 -  1) =     -4.00440  eV     1   --> A'             
     e(  2 -  2) =      5.67911  eV     1   --> A''            
     e(  3 -  3) =      6.51006  eV     1   --> A'             
     e(  4 -  4) =      7.94755  eV     1   --> A''            
     e(  5 -  5) =     11.27840  eV     1   --> A'             
     e(  6 -  6) =     13.32265  eV     1   --> A''            
     e(  7 -  7) =     13.66300  eV     1   --> A''            
     e(  8 -  8) =     13.83186  eV     1   --> A'             
     e(  9 -  9) =     16.78801  eV     1   --> A''            
     e( 10 - 10) =     18.93643  eV     1   --> A''            
     e( 11 - 11) =     20.48519  eV     1   --> A'             
     e( 12 - 12) =     21.38267  eV     1   --> A''            
     e( 13 - 13) =     22.78455  eV     1   --> A'             
     e( 14 - 14) =     25.03125  eV     1   --> A''            
     e( 15 - 15) =     28.19656  eV     1   --> A'             
     e( 16 - 16) =     30.16567  eV     1   --> A''            

 **************************************************************************

 **************************************************************************

                    xk=(  -0.33333,   0.16667,   0.00000  )

     Band symmetry, C_s (m)     point group:

     e(  1 -  1) =     -4.15781  eV     1   --> A'             
     e(  2 -  2) =      6.03504  eV     1   --> A''            
     e(  3 -  3) =      6.79132  eV     1   --> A'             
     e(  4 -  4) =      8.10795  eV     1   --> A''            
     e(  5 -  5) =     11.28179  eV     1   --> A'             
     e(  6 -  6) =     13.21282  eV     1   --> A''            
     e(  7 -  7) =     13.53608  eV     1   --> A'             
     e(  8 -  8) =     13.92788  eV     1   --> A''            
     e(  9 -  9) =     16.68733  eV     1   --> A''            
     e( 10 - 10) =     18.42338  eV     1   --> A''            
     e( 11 - 11) =     20.16349  eV     1   --> A'             
     e( 12 - 12) =     21.25976  eV     1   --> A''            
     e( 13 - 13) =     22.44092  eV     1   --> A'             
     e( 14 - 14) =     24.54395  eV     1   --> A''            
     e( 15 - 15) =     28.94802  eV     1   --> A'             
     e( 16 - 16) =     29.66867  eV     1   --> A''            

 **************************************************************************

 **************************************************************************

                    xk=(  -0.30000,   0.15000,  -0.00000  )

     Band symmetry, C_s (m)     point group:

     e(  1 -  1) =     -4.29717  eV     1   --> A'             
     e(  2 -  2) =      6.39487  eV     1   --> A''            
     e(  3 -  3) =      7.07428  eV     1   --> A'             
     e(  4 -  4) =      8.25361  eV     1   --> A''            
     e(  5 -  5) =     11.29592  eV     1   --> A'             
     e(  6 -  6) =     13.06853  eV     1   --> A''            
     e(  7 -  7) =     13.25025  eV     1   --> A'             
     e(  8 -  8) =     14.22686  eV     1   --> A''            
     e(  9 -  9) =     16.61207  eV     1   --> A''            
     e( 10 - 10) =     17.94271  eV     1   --> A''            
     e( 11 - 11) =     19.82784  eV     1   --> A'             
     e( 12 - 12) =     21.16043  eV     1   --> A''            
     e( 13 - 13) =     22.14109  eV     1   --> A'             
     e( 14 - 14) =     24.05751  eV     1   --> A''            
     e( 15 - 15) =     29.09868  eV     1   --> A''            
     e( 16 - 16) =     29.71311  eV     1   --> A'             

 **************************************************************************

 **************************************************************************

                    xk=(  -0.26667,   0.13333,  -0.00000  )

     Band symmetry, C_s (m)     point group:

     e(  1 -  1) =     -4.42230  eV     1   --> A'             
     e(  2 -  2) =      6.75658  eV     1   --> A''            
     e(  3 -  3) =      7.35619  eV     1   --> A'             
     e(  4 -  4) =      8.38476  eV     1   --> A''            
     e(  5 -  5) =     11.31949  eV     1   --> A'             
     e(  6 -  6) =     12.90173  eV     1   --> A''            
     e(  7 -  7) =     12.97500  eV     1   --> A'             
     e(  8 -  8) =     14.54384  eV     1   --> A''            
     e(  9 -  9) =     16.55045  eV     1   --> A''            
     e( 10 - 10) =     17.50791  eV     1   --> A''            
     e( 11 - 11) =     19.48715  eV     1   --> A'             
     e( 12 - 12) =     21.08450  eV     1   --> A''            
     e( 13 - 13) =     21.88499  eV     1   --> A'             
     e( 14 - 14) =     23.57930  eV     1   --> A''            
     e( 15 - 15) =     28.52876  eV     1   --> A''            
     e( 16 - 16) =     30.48419  eV     1   --> A'             

 **************************************************************************

 **************************************************************************

                    xk=(  -0.23333,   0.11667,   0.00000  )

     Band symmetry, C_s (m)     point group:

     e(  1 -  1) =     -4.53301  eV     1   --> A'             
     e(  2 -  2) =      7.11733  eV     1   --> A''            
     e(  3 -  3) =      7.63379  eV     1   --> A'             
     e(  4 -  4) =      8.50139  eV     1   --> A''            
     e(  5 -  5) =     11.35079  eV     1   --> A'             
     e(  6 -  6) =     12.71161  eV     1   --> A'             
     e(  7 -  7) =     12.71709  eV     1   --> A''            
     e(  8 -  8) =     14.86715  eV     1   --> A''            
     e(  9 -  9) =     16.47831  eV     1   --> A''            
     e( 10 - 10) =     17.14649  eV     1   --> A''            
     e( 11 - 11) =     19.15249  eV     1   --> A'             
     e( 12 - 12) =     21.03104  eV     1   --> A''            
     e( 13 - 13) =     21.67007  eV     1   --> A'             
     e( 14 - 14) =     23.11498  eV     1   --> A''            
     e( 15 - 15) =     27.98141  eV     1   --> A''            
     e( 16 - 16) =     31.25631  eV     1   --> A'             

 **************************************************************************

 **************************************************************************

                    xk=(  -0.20000,   0.10000,   0.00000  )

     Band symmetry, C_s (m)     point group:

     e(  1 -  1) =     -4.62921  eV     1   --> A'             
     e(  2 -  2) =      7.47311  eV     1   --> A''            
     e(  3 -  3) =      7.90292  eV     1   --> A'             
     e(  4 -  4) =      8.60402  eV     1   --> A''            
     e(  5 -  5) =     11.38784  eV     1   --> A'             
     e(  6 -  6) =     12.46181  eV     1   --> A'             
     e(  7 -  7) =     12.51864  eV     1   --> A''            
     e(  8 -  8) =     15.17845  eV     1   --> A''            
     e(  9 -  9) =     16.35714  eV     1   --> A''            
     e( 10 - 10) =     16.90813  eV     1   --> A''            
     e( 11 - 11) =     18.83402  eV     1   --> A'             
     e( 12 - 12) =     20.99918  eV     1   --> A''            
     e( 13 - 13) =     21.49147  eV     1   --> A'             
     e( 14 - 14) =     22.67001  eV     1   --> A''            
     e( 15 - 15) =     27.47135  eV     1   --> A''            
     e( 16 - 16) =     32.00957  eV     1   --> A'             

 **************************************************************************

 **************************************************************************

                    xk=(  -0.16667,   0.08333,  -0.00000  )

     Band symmetry, C_s (m)     point group:

     e(  1 -  1) =     -4.71078  eV     1   --> A'             
     e(  2 -  2) =      7.81814  eV     1   --> A''            
     e(  3 -  3) =      8.15823  eV     1   --> A'             
     e(  4 -  4) =      8.69227  eV     1   --> A''            
     e(  5 -  5) =     11.42790  eV     1   --> A'             
     e(  6 -  6) =     12.22856  eV     1   --> A'             
     e(  7 -  7) =     12.31114  eV     1   --> A''            
     e(  8 -  8) =     15.42996  eV     1   --> A''            
     e(  9 -  9) =     16.21383  eV     1   --> A''            
     e( 10 - 10) =     16.80457  eV     1   --> A''            
     e( 11 - 11) =     18.54244  eV     1   --> A'             
     e( 12 - 12) =     20.98618  eV     1   --> A''            
     e( 13 - 13) =     21.34602  eV     1   --> A'             
     e( 14 - 14) =     22.25118  eV     1   --> A''            
     e( 15 - 15) =     27.01027  eV     1   --> A''            
     e( 16 - 16) =     32.73183  eV     1   --> A'             

 **************************************************************************

 **************************************************************************

                    xk=(  -0.13333,   0.06667,  -0.00000  )

     Band symmetry, C_s (m)     point group:

     e(  1 -  1) =     -4.77763  eV     1   --> A'             
     e(  2 -  2) =      8.14384  eV     1   --> A''            
     e(  3 -  3) =      8.39264  eV     1   --> A'             
     e(  4 -  4) =      8.76577  eV     1   --> A''            
     e(  5 -  5) =     11.46785  eV     1   --> A'             
     e(  6 -  6) =     12.01647  eV     1   --> A'             
     e(  7 -  7) =     12.10149  eV     1   --> A''            
     e(  8 -  8) =     15.50771  eV     1   --> A''            
     e(  9 -  9) =     16.21380  eV     1   --> A''            
     e( 10 - 10) =     16.77331  eV     1   --> A''            
     e( 11 - 11) =     18.28755  eV     1   --> A'             
     e( 12 - 12) =     20.98825  eV     1   --> A''            
     e( 13 - 13) =     21.23067  eV     1   --> A'             
     e( 14 - 14) =     21.86793  eV     1   --> A''            
     e( 15 - 15) =     26.60961  eV     1   --> A''            
     e( 16 - 16) =     33.39816  eV     1   --> A'             

 **************************************************************************

 **************************************************************************

                    xk=(  -0.10000,   0.05000,   0.00000  )

     Band symmetry, C_s (m)     point group:

     e(  1 -  1) =     -4.82970  eV     1   --> A'             
     e(  2 -  2) =      8.43717  eV     1   --> A''            
     e(  3 -  3) =      8.59676  eV     1   --> A'             
     e(  4 -  4) =      8.82395  eV     1   --> A''            
     e(  5 -  5) =     11.50420  eV     1   --> A'             
     e(  6 -  6) =     11.83263  eV     1   --> A'             
     e(  7 -  7) =     11.90072  eV     1   --> A''            
     e(  8 -  8) =     15.41278  eV     1   --> A''            
     e(  9 -  9) =     16.38673  eV     1   --> A''            
     e( 10 - 10) =     16.76876  eV     1   --> A''            
     e( 11 - 11) =     18.07829  eV     1   --> A'             
     e( 12 - 12) =     21.00017  eV     1   --> A''            
     e( 13 - 13) =     21.14308  eV     1   --> A'             
     e( 14 - 14) =     21.53394  eV     1   --> A''            
     e( 15 - 15) =     26.28088  eV     1   --> A''            
     e( 16 - 16) =     33.97105  eV     1   --> A'             

 **************************************************************************

 **************************************************************************

                    xk=(  -0.06667,   0.03333,  -0.00000  )

     Band symmetry, C_s (m)     point group:

     e(  1 -  1) =     -4.86692  eV     1   --> A'             
     e(  2 -  2) =      8.67848  eV     1   --> A''            
     e(  3 -  3) =      8.75833  eV     1   --> A'             
     e(  4 -  4) =      8.86602  eV     1   --> A''            
     e(  5 -  5) =     11.53353  eV     1   --> A'             
     e(  6 -  6) =     11.68710  eV     1   --> A'             
     e(  7 -  7) =     11.72663  eV     1   --> A''            
     e(  8 -  8) =     15.29232  eV     1   --> A''            
     e(  9 -  9) =     16.58433  eV     1   --> A''            
     e( 10 - 10) =     16.77367  eV     1   --> A''            
     e( 11 - 11) =     17.92239  eV     1   --> A'             
     e( 12 - 12) =     21.01568  eV     1   --> A''            
     e( 13 - 13) =     21.08157  eV     1   --> A'             
     e( 14 - 14) =     21.26817  eV     1   --> A''            
     e( 15 - 15) =     26.03586  eV     1   --> A''            
     e( 16 - 16) =     34.40349  eV     1   --> A'             

 **************************************************************************

 **************************************************************************

                    xk=(  -0.03333,   0.01667,  -0.00000  )

     Band symmetry, C_s (m)     point group:

     e(  1 -  1) =     -4.88927  eV     1   --> A'             
     e(  2 -  2) =      8.84163  eV     1   --> A''            
     e(  3 -  3) =      8.86350  eV     1   --> A'             
     e(  4 -  4) =      8.89169  eV     1   --> A''            
     e(  5 -  5) =     11.55264  eV     1   --> A'             
     e(  6 -  6) =     11.59224  eV     1   --> A'             
     e(  7 -  7) =     11.60398  eV     1   --> A''            
     e(  8 -  8) =     15.20880  eV     1   --> A''            
     e(  9 -  9) =     16.72740  eV     1   --> A''            
     e( 10 - 10) =     16.78013  eV     1   --> A''            
     e( 11 - 11) =     17.82611  eV     1   --> A'             
     e( 12 - 12) =     21.02816  eV     1   --> A''            
     e( 13 - 13) =     21.04505  eV     1   --> A'             
     e( 14 - 14) =     21.09409  eV     1   --> A''            
     e( 15 - 15) =     25.88460  eV     1   --> A''            
     e( 16 - 16) =     34.66128  eV     1   -->   ?

 **************************************************************************

 **************************************************************************

                    xk=(   0.00000,   0.00000,   0.00000  )

     point group O_h (m-3m) 
     there are 10 classes
     the character table:

       E     8C3   3C2   6C4   6C2'  i     8S6   3s_h  6S4   6s_d 
A_1g   1.00  1.00  1.00  1.00  1.00  1.00  1.00  1.00  1.00  1.00
A_2g   1.00  1.00  1.00 -1.00 -1.00  1.00  1.00  1.00 -1.00 -1.00
E_g    2.00 -1.00  2.00  0.00  0.00  2.00 -1.00  2.00  0.00  0.00
T_1g   3.00  0.00 -1.00  1.00 -1.00  3.00  0.00 -1.00  1.00 -1.00
T_2g   3.00  0.00 -1.00 -1.00  1.00  3.00  0.00 -1.00 -1.00  1.00
A_1u   1.00  1.00  1.00  1.00  1.00 -1.00 -1.00 -1.00 -1.00 -1.00
A_2u   1.00  1.00  1.00 -1.00 -1.00 -1.00 -1.00 -1.00  1.00  1.00
E_u    2.00 -1.00  2.00  0.00  0.00 -2.00  1.00 -2.00  0.00  0.00
T_1u   3.00  0.00 -1.00  1.00 -1.00 -3.00  0.00  1.00 -1.00  1.00
T_2u   3.00  0.00 -1.00 -1.00  1.00 -3.00  0.00  1.00  1.00 -1.00

     the symmetry operations in each class and the name of the first element:

     E        1
                                                                 
     8C3     17   19   20   18   24   21   22   23
                                                                 
     3C2      2    4    3
                                                                 
     6C4      7    8   15   16   12   11
                                                                 
     6C2'     5    6   14   13   10    9
                                                                 
     i       25
                                                                 
     8S6     41   43   44   42   48   45   46   47
                                                                 
     3s_h    26   28   27
                                                                 
     6S4     31   32   39   40   36   35
                                                                 
     6s_d    29   30   38   37   34   33
                                                                 

     Band symmetry, O_h (m-3m)  point group:

     e(  1 -  1) =     -4.89672  eV     1   --> A_1g G_1   G_1+
     e(  2 -  4) =      8.90039  eV     3   --> T_2g G_25' G_5+
     e(  5 -  7) =     11.55971  eV     3   --> T_1u G_15  G_4-
     e(  8 -  8) =     15.18209  eV     1   --> A_2u G_2'  G_2-
     e(  9 - 10) =     16.78379  eV     2   --> E_u  G_12' G_3-
     e( 11 - 11) =     17.79365  eV     1   --> A_1g G_1   G_1+
     e( 12 - 14) =     21.03304  eV     3   --> T_2g G_25' G_5+
     e( 15 - 15) =     25.83743  eV     1   --> A_2u G_2'  G_2-
     e( 16 - 16) =     34.74588  eV     1   -->   ?

 **************************************************************************

 **************************************************************************

                    xk=(  -0.03333,   0.00000,   0.00000  )

     point group C_4v (4mm) 
     there are  5 classes
     the character table:

       E     2C4   C2    2s_v  2s_d 
A_1    1.00  1.00  1.00  1.00  1.00
A_2    1.00  1.00  1.00 -1.00 -1.00
B_1    1.00 -1.00  1.00  1.00 -1.00
B_2    1.00 -1.00  1.00 -1.00  1.00
E      2.00  0.00 -2.00  0.00  0.00

     the symmetry operations in each class and the name of the first element:

     E        1
                                                                 
     2C4      3    4
                                                                 
     C2       2
                                                                 
     2s_v     5    6
                                                                 
     2s_d     7    8
                                                                 

     Band symmetry, C_4v (4mm)  point group:

     e(  1 -  1) =     -4.89076  eV     1   --> A_1  G_1 D_1   
     e(  2 -  3) =      8.87088  eV     2   --> E    G_5 D_5   
     e(  4 -  4) =      8.87544  eV     1   --> B_2  G_4 D_2'  
     e(  5 -  5) =     11.54372  eV     1   --> A_1  G_1 D_1   
     e(  6 -  7) =     11.59527  eV     2   --> E    G_5 D_5   
     e(  8 -  8) =     15.20261  eV     1   --> B_2  G_4 D_2'  
     e(  9 -  9) =     16.73069  eV     1   --> B_2  G_4 D_2'  
     e( 10 - 10) =     16.78966  eV     1   --> A_2  G_2 D_1'  
     e( 11 - 11) =     17.81958  eV     1   --> A_1  G_1 D_1   
     e( 12 - 13) =     21.04260  eV     2   --> E    G_5 D_5   
     e( 14 - 14) =     21.06832  eV     1   --> B_2  G_4 D_2'  
     e( 15 - 15) =     25.87438  eV     1   --> B_2  G_4 D_2'  
     e( 16 - 16) =     34.67964  eV     1   -->   ?

 **************************************************************************

 **************************************************************************

                    xk=(  -0.06667,   0.00000,   0.00000  )

     Band symmetry, C_4v (4mm)  point group:

     e(  1 -  1) =     -4.87288  eV     1   --> A_1  G_1 D_1   
     e(  2 -  3) =      8.78747  eV     2   --> E    G_5 D_5   
     e(  4 -  4) =      8.80251  eV     1   --> B_2  G_4 D_2'  
     e(  5 -  5) =     11.49907  eV     1   --> A_1  G_1 D_1   
     e(  6 -  7) =     11.69996  eV     2   --> E    G_5 D_5   
     e(  8 -  8) =     15.26741  eV     1   --> B_2  G_4 D_2'  
     e(  9 -  9) =     16.59384  eV     1   --> B_2  G_4 D_2'  
     e( 10 - 10) =     16.80621  eV     1   --> A_2  G_2 D_1'  
     e( 11 - 11) =     17.89700  eV     1   --> A_1  G_1 D_1   
     e( 12 - 13) =     21.07163  eV     2   --> E    G_5 D_5   
     e( 14 - 14) =     21.16742  eV     1   --> B_2  G_4 D_2'  
     e( 15 - 15) =     25.99723  eV     1   --> B_2  G_4 D_2'  
     e( 16 - 16) =     34.49214  eV     1   -->   ?

 **************************************************************************

 **************************************************************************

                    xk=(  -0.10000,   0.00000,   0.00000  )

     Band symmetry, C_4v (4mm)  point group:

     e(  1 -  1) =     -4.84309  eV     1   --> A_1  G_1 D_1   
     e(  2 -  3) =      8.66080  eV     2   --> E    G_5 D_5   
     e(  4 -  4) =      8.68459  eV     1   --> B_2  G_4 D_2'  
     e(  5 -  5) =     11.42713  eV     1   --> A_1  G_1 D_1   
     e(  6 -  7) =     11.86174  eV     2   --> E    G_5 D_5   
     e(  8 -  8) =     15.35469  eV     1   --> B_2  G_4 D_2'  
     e(  9 -  9) =     16.40431  eV     1   --> B_2  G_4 D_2'  
     e( 10 - 10) =     16.83789  eV     1   --> A_2  G_2 D_1'  
     e( 11 - 11) =     18.02313  eV     1   --> A_1  G_1 D_1   
     e( 12 - 13) =     21.11991  eV     2   --> E    G_5 D_5   
     e( 14 - 14) =     21.31347  eV     1   --> B_2  G_4 D_2'  
     e( 15 - 15) =     26.20104  eV     1   --> B_2  G_4 D_2'  
     e( 16 - 16) =     34.20246  eV     1   -->   ?

 **************************************************************************

 **************************************************************************

                    xk=(  -0.13333,   0.00000,   0.00000  )

     Band symmetry, C_4v (4mm)  point group:

     e(  1 -  1) =     -4.80140  eV     1   --> A_1  G_1 D_1   
     e(  2 -  3) =      8.50371  eV     2   --> E    G_5 D_5   
     e(  4 -  4) =      8.52676  eV     1   --> B_2  G_4 D_2'  
     e(  5 -  5) =     11.33151  eV     1   --> A_1  G_1 D_1   
     e(  6 -  7) =     12.06784  eV     2   --> E    G_5 D_5   
     e(  8 -  8) =     15.40422  eV     1   --> B_2  G_4 D_2'  
     e(  9 -  9) =     16.23833  eV     1   --> B_2  G_4 D_2'  
     e( 10 - 10) =     16.88226  eV     1   --> A_2  G_2 D_1'  
     e( 11 - 11) =     18.19452  eV     1   --> A_1  G_1 D_1   
     e( 12 - 13) =     21.18748  eV     2   --> E    G_5 D_5   
     e( 14 - 14) =     21.48822  eV     1   --> B_2  G_4 D_2'  
     e( 15 - 15) =     26.48163  eV     1   --> B_2  G_4 D_2'  
     e( 16 - 16) =     33.83840  eV     1   -->   ?

 **************************************************************************

 **************************************************************************

                    xk=(  -0.16667,   0.00000,   0.00000  )

     Band symmetry, C_4v (4mm)  point group:

     e(  1 -  1) =     -4.74783  eV     1   --> A_1  G_1 D_1   
     e(  2 -  3) =      8.32750  eV     2   --> E    G_5 D_5   
     e(  4 -  4) =      8.33502  eV     1   --> B_2  G_4 D_2'  
     e(  5 -  5) =     11.21668  eV     1   --> A_1  G_1 D_1   
     e(  6 -  7) =     12.30729  eV     2   --> E    G_5 D_5   
     e(  8 -  8) =     15.30087  eV     1   --> B_2  G_4 D_2'  
     e(  9 -  9) =     16.22545  eV     1   --> B_2  G_4 D_2'  
     e( 10 - 10) =     16.94034  eV     1   --> A_2  G_2 D_1'  
     e( 11 - 11) =     18.40705  eV     1   --> A_1  G_1 D_1   
     e( 12 - 13) =     21.27441  eV     2   --> E    G_5 D_5   
     e( 14 - 14) =     21.67736  eV     1   --> B_2  G_4 D_2'  
     e( 15 - 15) =     26.83503  eV     1   --> B_2  G_4 D_2'  
     e( 16 - 16) =     33.42399  eV     1   -->   ?

 **************************************************************************

 **************************************************************************

                    xk=(  -0.20000,   0.00000,   0.00000  )

     Band symmetry, C_4v (4mm)  point group:

     e(  1 -  1) =     -4.68242  eV     1   --> A_1  G_1 D_1   
     e(  2 -  2) =      8.11387  eV     1   --> B_2  G_4 D_2'  
     e(  3 -  4) =      8.13954  eV     2   --> E    G_5 D_5   
     e(  5 -  5) =     11.08613  eV     1   --> A_1  G_1 D_1   
     e(  6 -  7) =     12.57158  eV     2   --> E    G_5 D_5   
     e(  8 -  8) =     15.03127  eV     1   --> B_2  G_4 D_2'  
     e(  9 -  9) =     16.38733  eV     1   --> B_2  G_4 D_2'  
     e( 10 - 10) =     17.01005  eV     1   --> A_2  G_2 D_1'  
     e( 11 - 11) =     18.65604  eV     1   --> A_1  G_1 D_1   
     e( 12 - 13) =     21.38032  eV     2   --> E    G_5 D_5   
     e( 14 - 14) =     21.87167  eV     1   --> B_2  G_4 D_2'  
     e( 15 - 15) =     27.25119  eV     1   --> B_2  G_4 D_2'  
     e( 16 - 16) =     32.97360  eV     1   -->   ?

 **************************************************************************

 **************************************************************************

                    xk=(  -0.23333,   0.00000,   0.00000  )

     Band symmetry, C_4v (4mm)  point group:

     e(  1 -  1) =     -4.60519  eV     1   --> A_1  G_1 D_1   
     e(  2 -  2) =      7.86866  eV     1   --> B_2  G_4 D_2'  
     e(  3 -  4) =      7.94609  eV     2   --> E    G_5 D_5   
     e(  5 -  5) =     10.94432  eV     1   --> A_1  G_1 D_1   
     e(  6 -  7) =     12.85472  eV     2   --> E    G_5 D_5   
     e(  8 -  8) =     14.68366  eV     1   --> B_2  G_4 D_2'  
     e(  9 -  9) =     16.64288  eV     1   --> B_2  G_4 D_2'  
     e( 10 - 10) =     17.09242  eV     1   --> A_2  G_2 D_1'  
     e( 11 - 11) =     18.93731  eV     1   --> A_1  G_1 D_1   
     e( 12 - 13) =     21.50517  eV     2   --> E    G_5 D_5   
     e( 14 - 14) =     22.06703  eV     1   --> B_2  G_4 D_2'  
     e( 15 - 15) =     27.72331  eV     1   --> B_2  G_4 D_2'  
     e( 16 - 16) =     32.50152  eV     1   -->   ?

 **************************************************************************

 **************************************************************************

                    xk=(  -0.26667,   0.00000,   0.00000  )

     Band symmetry, C_4v (4mm)  point group:

     e(  1 -  1) =     -4.51622  eV     1   --> A_1  G_1 D_1   
     e(  2 -  2) =      7.60354  eV     1   --> B_2  G_4 D_2'  
     e(  3 -  4) =      7.75120  eV     2   --> E    G_5 D_5   
     e(  5 -  5) =     10.79484  eV     1   --> A_1  G_1 D_1   
     e(  6 -  7) =     13.15231  eV     2   --> E    G_5 D_5   
     e(  8 -  8) =     14.30578  eV     1   --> B_2  G_4 D_2'  
     e(  9 -  9) =     16.94837  eV     1   --> B_2  G_4 D_2'  
     e( 10 - 10) =     17.18745  eV     1   --> A_2  G_2 D_1'  
     e( 11 - 11) =     19.24630  eV     1   --> A_1  G_1 D_1   
     e( 12 - 13) =     21.64847  eV     2   --> E    G_5 D_5   
     e( 14 - 14) =     22.26250  eV     1   --> B_2  G_4 D_2'  
     e( 15 - 15) =     28.24253  eV     1   --> B_2  G_4 D_2'  
     e( 16 - 16) =     32.01551  eV     1   -->   ?

 **************************************************************************

 **************************************************************************

                    xk=(  -0.30000,   0.00000,   0.00000  )

     Band symmetry, C_4v (4mm)  point group:

     e(  1 -  1) =     -4.41549  eV     1   --> A_1  G_1 D_1   
     e(  2 -  2) =      7.32190  eV     1   --> B_2  G_4 D_2'  
     e(  3 -  4) =      7.55785  eV     2   --> E    G_5 D_5   
     e(  5 -  5) =     10.64109  eV     1   --> A_1  G_1 D_1   
     e(  6 -  7) =     13.46131  eV     2   --> E    G_5 D_5   
     e(  8 -  8) =     13.91750  eV     1   --> B_2  G_4 D_2'  
     e(  9 -  9) =     17.28638  eV     1   --> B_2  G_4 D_2'  
     e( 10 - 10) =     17.29512  eV     1   --> A_2  G_2 D_1'  
     e( 11 - 11) =     19.58049  eV     1   --> A_1  G_1 D_1   
     e( 12 - 13) =     21.81012  eV     2   --> E    G_5 D_5   
     e( 14 - 14) =     22.45903  eV     1   --> B_2  G_4 D_2'  
     e( 15 - 15) =     28.79991  eV     1   --> B_2  G_4 D_2'  
     e( 16 - 16) =     31.52532  eV     1   -->   ?

 **************************************************************************

 **************************************************************************

                    xk=(  -0.33333,   0.00000,   0.00000  )

     Band symmetry, C_4v (4mm)  point group:

     e(  1 -  1) =     -4.30310  eV     1   --> A_1  G_1 D_1   
     e(  2 -  2) =      7.02646  eV     1   --> B_2  G_4 D_2'  
     e(  3 -  4) =      7.36808  eV     2   --> E    G_5 D_5   
     e(  5 -  5) =     10.48579  eV     1   --> A_1  G_1 D_1   
     e(  6 -  6) =     13.52891  eV     1   --> B_2  G_4 D_2'  
     e(  7 -  8) =     13.77934  eV     2   --> E    G_5 D_5   
     e(  9 -  9) =     17.41543  eV     1   --> A_2  G_2 D_1'  
     e( 10 - 10) =     17.64823  eV     1   --> B_2  G_4 D_2'  
     e( 11 - 11) =     19.93611  eV     1   --> A_1  G_1 D_1   
     e( 12 - 13) =     21.98923  eV     2   --> E    G_5 D_5   
     e( 14 - 14) =     22.65852  eV     1   --> B_2  G_4 D_2'  
     e( 15 - 15) =     29.38655  eV     1   --> B_2  G_4 D_2'  
     e( 16 - 16) =     31.03480  eV     1   -->   ?

 **************************************************************************

 **************************************************************************

                    xk=(  -0.36667,   0.00000,   0.00000  )

     Band symmetry, C_4v (4mm)  point group:

     e(  1 -  1) =     -4.17913  eV     1   --> A_1  G_1 D_1   
     e(  2 -  2) =      6.71937  eV     1   --> B_2  G_4 D_2'  
     e(  3 -  4) =      7.18334  eV     2   --> E    G_5 D_5   
     e(  5 -  5) =     10.33126  eV     1   --> A_1  G_1 D_1   
     e(  6 -  6) =     13.14613  eV     1   --> B_2  G_4 D_2'  
     e(  7 -  8) =     14.10441  eV     2   --> E    G_5 D_5   
     e(  9 -  9) =     17.54837  eV     1   --> A_2  G_2 D_1'  
     e( 10 - 10) =     18.02852  eV     1   --> B_2  G_4 D_2'  
     e( 11 - 11) =     20.30973  eV     1   --> A_1  G_1 D_1   
     e( 12 - 13) =     22.18410  eV     2   --> E    G_5 D_5   
     e( 14 - 14) =     22.86318  eV     1   --> B_2  G_4 D_2'  
     e( 15 - 15) =     29.99357  eV     1   --> B_2  G_4 D_2'  
     e( 16 - 16) =     30.54567  eV     1   -->   ?

 **************************************************************************

 **************************************************************************

                    xk=(  -0.40000,   0.00000,   0.00000  )

     Band symmetry, C_4v (4mm)  point group:

     e(  1 -  1) =     -4.04360  eV     1   --> A_1  G_1 D_1   
     e(  2 -  2) =      6.40238  eV     1   --> B_2  G_4 D_2'  
     e(  3 -  4) =      7.00489  eV     2   --> E    G_5 D_5   
     e(  5 -  5) =     10.17949  eV     1   --> A_1  G_1 D_1   
     e(  6 -  6) =     12.77330  eV     1   --> B_2  G_4 D_2'  
     e(  7 -  8) =     14.43554  eV     2   --> E    G_5 D_5   
     e(  9 -  9) =     17.69391  eV     1   --> A_2  G_2 D_1'  
     e( 10 - 10) =     18.42326  eV     1   --> B_2  G_4 D_2'  
     e( 11 - 11) =     20.69960  eV     1   --> A_1  G_1 D_1   
     e( 12 - 13) =     22.39425  eV     2   --> E    G_5 D_5   
     e( 14 - 14) =     23.07525  eV     1   --> B_2  G_4 D_2'  
     e( 15 - 16) =     30.06776  eV     2   --> E    G_5 D_5   

 **************************************************************************

 **************************************************************************

                    xk=(  -0.43333,   0.00000,   0.00000  )

     Band symmetry, C_4v (4mm)  point group:

     e(  1 -  1) =     -3.89661  eV     1   --> A_1  G_1 D_1   
     e(  2 -  2) =      6.07690  eV     1   --> B_2  G_4 D_2'  
     e(  3 -  4) =      6.83353  eV     2   --> E    G_5 D_5   
     e(  5 -  5) =     10.03211  eV     1   --> A_1  G_1 D_1   
     e(  6 -  6) =     12.41338  eV     1   --> B_2  G_4 D_2'  
     e(  7 -  8) =     14.77146  eV     2   --> E    G_5 D_5   
     e(  9 -  9) =     17.85205  eV     1   --> A_2  G_2 D_1'  
     e( 10 - 10) =     18.82921  eV     1   --> B_2  G_4 D_2'  
     e( 11 - 11) =     21.10262  eV     1   --> A_1  G_1 D_1   
     e( 12 - 13) =     22.61669  eV     2   --> E    G_5 D_5   
     e( 14 - 14) =     23.29694  eV     1   --> B_2  G_4 D_2'  
     e( 15 - 16) =     29.60248  eV     2   --> E    G_5 D_5   

 **************************************************************************

 **************************************************************************

                    xk=(  -0.46667,   0.00000,   0.00000  )

     Band symmetry, C_4v (4mm)  point group:

     e(  1 -  1) =     -3.73825  eV     1   --> A_1  G_1 D_1   
     e(  2 -  2) =      5.74414  eV     1   --> B_2  G_4 D_2'  
     e(  3 -  4) =      6.66994  eV     2   --> E    G_5 D_5   
     e(  5 -  5) =      9.89052  eV     1   --> A_1  G_1 D_1   
     e(  6 -  6) =     12.06854  eV     1   --> B_2  G_4 D_2'  
     e(  7 -  8) =     15.11133  eV     2   --> E    G_5 D_5   
     e(  9 -  9) =     18.02276  eV     1   --> A_2  G_2 D_1'  
     e( 10 - 10) =     19.24352  eV     1   --> B_2  G_4 D_2'  
     e( 11 - 11) =     21.51620  eV     1   --> A_1  G_1 D_1   
     e( 12 - 13) =     22.84771  eV     2   --> E    G_5 D_5   
     e( 14 - 14) =     23.53034  eV     1   --> B_2  G_4 D_2'  
     e( 15 - 16) =     29.15494  eV     2   --> E    G_5 D_5   

 **************************************************************************

 **************************************************************************

                    xk=(  -0.50000,   0.00000,   0.00000  )

     Band symmetry, C_4v (4mm)  point group:

     e(  1 -  1) =     -3.56864  eV     1   --> A_1  G_1 D_1   
     e(  2 -  2) =      5.40518  eV     1   --> B_2  G_4 D_2'  
     e(  3 -  4) =      6.51464  eV     2   --> E    G_5 D_5   
     e(  5 -  5) =      9.75589  eV     1   --> A_1  G_1 D_1   
     e(  6 -  6) =     11.74037  eV     1   --> B_2  G_4 D_2'  
     e(  7 -  8) =     15.45447  eV     2   --> E    G_5 D_5   
     e(  9 -  9) =     18.20603  eV     1   --> A_2  G_2 D_1'  
     e( 10 - 10) =     19.66349  eV     1   --> B_2  G_4 D_2'  
     e( 11 - 11) =     21.93756  eV     1   --> A_1  G_1 D_1   
     e( 12 - 13) =     23.08169  eV     2   --> E    G_5 D_5   
     e( 14 - 14) =     23.77745  eV     1   --> B_2  G_4 D_2'  
     e( 15 - 16) =     28.73178  eV     2   --> E    G_5 D_5   

 **************************************************************************

 **************************************************************************

                    xk=(  -0.53333,   0.00000,   0.00000  )

     Band symmetry, C_4v (4mm)  point group:

     e(  1 -  1) =     -3.38791  eV     1   --> A_1  G_1 D_1   
     e(  2 -  2) =      5.06100  eV     1   --> B_2  G_4 D_2'  
     e(  3 -  4) =      6.36802  eV     2   --> E    G_5 D_5   
     e(  5 -  5) =      9.62915  eV     1   --> A_1  G_1 D_1   
     e(  6 -  6) =     11.42993  eV     1   --> B_2  G_4 D_2'  
     e(  7 -  8) =     15.79942  eV     2   --> E    G_5 D_5   
     e(  9 -  9) =     18.40163  eV     1   --> A_2  G_2 D_1'  
     e( 10 - 10) =     20.08473  eV     1   --> B_2  G_4 D_2'  
     e( 11 - 11) =     22.36307  eV     1   --> A_1  G_1 D_1   
     e( 12 - 13) =     23.30907  eV     2   --> E    G_5 D_5   
     e( 14 - 14) =     24.04023  eV     1   --> B_2  G_4 D_2'  
     e( 15 - 16) =     28.34028  eV     2   --> E    G_5 D_5   

 **************************************************************************

 **************************************************************************

                    xk=(  -0.56667,   0.00000,   0.00000  )

     Band symmetry, C_4v (4mm)  point group:

     e(  1 -  1) =     -3.19612  eV     1   --> A_1  G_1 D_1   
     e(  2 -  2) =      4.71257  eV     1   --> B_2  G_4 D_2'  
     e(  3 -  4) =      6.23052  eV     2   --> E    G_5 D_5   
     e(  5 -  5) =      9.51126  eV     1   --> A_1  G_1 D_1   
     e(  6 -  6) =     11.13812  eV     1   --> B_2  G_4 D_2'  
     e(  7 -  8) =     16.14764  eV     2   --> E    G_5 D_5   
     e(  9 -  9) =     18.60993  eV     1   --> A_2  G_2 D_1'  
     e( 10 - 10) =     20.50810  eV     1   --> B_2  G_4 D_2'  
     e( 11 - 11) =     22.79029  eV     1   --> A_1  G_1 D_1   
     e( 12 - 13) =     23.51854  eV     2   --> E    G_5 D_5   
     e( 14 - 14) =     24.32060  eV     1   --> B_2  G_4 D_2'  
     e( 15 - 16) =     27.99821  eV     2   --> E    G_5 D_5   

 **************************************************************************

 **************************************************************************

                    xk=(  -0.60000,   0.00000,   0.00000  )

     Band symmetry, C_4v (4mm)  point group:

     e(  1 -  1) =     -2.99343  eV     1   --> A_1  G_1 D_1   
     e(  2 -  2) =      4.36083  eV     1   --> B_2  G_4 D_2'  
     e(  3 -  4) =      6.10238  eV     2   --> E    G_5 D_5   
     e(  5 -  5) =      9.40291  eV     1   --> A_1  G_1 D_1   
     e(  6 -  6) =     10.86533  eV     1   --> B_2  G_4 D_2'  
     e(  7 -  8) =     16.49797  eV     2   --> E    G_5 D_5   
     e(  9 -  9) =     18.83072  eV     1   --> A_2  G_2 D_1'  
     e( 10 - 10) =     20.92927  eV     1   --> B_2  G_4 D_2'  
     e( 11 - 11) =     23.21426  eV     1   --> A_1  G_1 D_1   
     e( 12 - 13) =     23.69042  eV     2   --> E    G_5 D_5   
     e( 14 - 14) =     24.62042  eV     1   --> B_2  G_4 D_2'  
     e( 15 - 16) =     27.72248  eV     2   --> E    G_5 D_5   

 **************************************************************************

 **************************************************************************

                    xk=(  -0.63333,   0.00000,   0.00000  )

     Band symmetry, C_4v (4mm)  point group:

     e(  1 -  1) =     -2.78000  eV     1   --> A_1  G_1 D_1   
     e(  2 -  2) =      4.00702  eV     1   --> B_2  G_4 D_2'  
     e(  3 -  4) =      5.98387  eV     2   --> E    G_5 D_5   
     e(  5 -  5) =      9.30473  eV     1   --> A_1  G_1 D_1   
     e(  6 -  6) =     10.61213  eV     1   --> B_2  G_4 D_2'  
     e(  7 -  8) =     16.85083  eV     2   --> E    G_5 D_5   
     e(  9 -  9) =     19.06402  eV     1   --> A_2  G_2 D_1'  
     e( 10 - 10) =     21.34754  eV     1   --> B_2  G_4 D_2'  
     e( 11 - 11) =     23.63001  eV     1   --> A_1  G_1 D_1   
     e( 12 - 13) =     23.80138  eV     2   --> E    G_5 D_5   
     e( 14 - 14) =     24.94261  eV     1   --> B_2  G_4 D_2'  
     e( 15 - 15) =     27.23030  eV     1   --> B_1  G_3 D_2   
     e( 16 - 16) =     27.53761  eV     1   -->   ?

 **************************************************************************

 **************************************************************************

                    xk=(  -0.66667,   0.00000,   0.00000  )

     Band symmetry, C_4v (4mm)  point group:

     e(  1 -  1) =     -2.55600  eV     1   --> A_1  G_1 D_1   
     e(  2 -  2) =      3.65149  eV     1   --> B_2  G_4 D_2'  
     e(  3 -  4) =      5.87510  eV     2   --> E    G_5 D_5   
     e(  5 -  5) =      9.21731  eV     1   --> A_1  G_1 D_1   
     e(  6 -  6) =     10.37785  eV     1   --> B_2  G_4 D_2'  
     e(  7 -  8) =     17.20495  eV     2   --> E    G_5 D_5   
     e(  9 -  9) =     19.30968  eV     1   --> A_2  G_2 D_1'  
     e( 10 - 10) =     21.75650  eV     1   --> B_2  G_4 D_2'  
     e( 11 - 12) =     23.82485  eV     2   --> E    G_5 D_5   
     e( 13 - 13) =     24.02923  eV     1   --> A_1  G_1 D_1   
     e( 14 - 14) =     25.28633  eV     1   --> B_2  G_4 D_2'  
     e( 15 - 15) =     26.74140  eV     1   --> B_1  G_3 D_2   
     e( 16 - 16) =     27.46765  eV     1   -->   ?

 **************************************************************************

 **************************************************************************

                    xk=(  -0.70000,   0.00000,   0.00000  )

     Band symmetry, C_4v (4mm)  point group:

     e(  1 -  1) =     -2.32161  eV     1   --> A_1  G_1 D_1   
     e(  2 -  2) =      3.29548  eV     1   --> B_2  G_4 D_2'  
     e(  3 -  4) =      5.77628  eV     2   --> E    G_5 D_5   
     e(  5 -  5) =      9.14116  eV     1   --> A_1  G_1 D_1   
     e(  6 -  6) =     10.16273  eV     1   --> B_2  G_4 D_2'  
     e(  7 -  8) =     17.56087  eV     2   --> E    G_5 D_5   
     e(  9 -  9) =     19.56774  eV     1   --> A_2  G_2 D_1'  
     e( 10 - 10) =     22.15577  eV     1   --> B_2  G_4 D_2'  
     e( 11 - 12) =     23.74915  eV     2   --> E    G_5 D_5   
     e( 13 - 13) =     24.40342  eV     1   --> A_1  G_1 D_1   
     e( 14 - 14) =     25.65371  eV     1   --> B_2  G_4 D_2'  
     e( 15 - 15) =     26.26249  eV     1   --> B_1  G_3 D_2   
     e( 16 - 16) =     27.52523  eV     1   -->   ?

 **************************************************************************

 **************************************************************************

                    xk=(  -0.73333,   0.00000,   0.00000  )

     Band symmetry, C_4v (4mm)  point group:

     e(  1 -  1) =     -2.07705  eV     1   --> A_1  G_1 D_1   
     e(  2 -  2) =      2.93992  eV     1   --> B_2  G_4 D_2'  
     e(  3 -  4) =      5.68748  eV     2   --> E    G_5 D_5   
     e(  5 -  5) =      9.07661  eV     1   --> A_1  G_1 D_1   
     e(  6 -  6) =      9.96649  eV     1   --> B_2  G_4 D_2'  
     e(  7 -  8) =     17.91693  eV     2   --> E    G_5 D_5   
     e(  9 -  9) =     19.83732  eV     1   --> A_2  G_2 D_1'  
     e( 10 - 10) =     22.54050  eV     1   --> B_2  G_4 D_2'  
     e( 11 - 12) =     23.58049  eV     2   --> E    G_5 D_5   
     e( 13 - 13) =     24.74116  eV     1   --> A_1  G_1 D_1   
     e( 14 - 14) =     25.79387  eV     1   --> B_1  G_3 D_2   
     e( 15 - 15) =     26.04521  eV     1   --> B_2  G_4 D_2'  
     e( 16 - 16) =     27.70349  eV     1   -->   ?

 **************************************************************************

 **************************************************************************

                    xk=(  -0.76667,   0.00000,   0.00000  )

     Band symmetry, C_4v (4mm)  point group:

     e(  1 -  1) =     -1.82253  eV     1   --> A_1  G_1 D_1   
     e(  2 -  2) =      2.58573  eV     1   --> B_2  G_4 D_2'  
     e(  3 -  4) =      5.60894  eV     2   --> E    G_5 D_5   
     e(  5 -  5) =      9.02436  eV     1   --> A_1  G_1 D_1   
     e(  6 -  6) =      9.78890  eV     1   --> B_2  G_4 D_2'  
     e(  7 -  8) =     18.27623  eV     2   --> E    G_5 D_5   
     e(  9 -  9) =     20.12000  eV     1   --> A_2  G_2 D_1'  
     e( 10 - 10) =     22.91464  eV     1   --> B_2  G_4 D_2'  
     e( 11 - 12) =     23.33900  eV     2   --> E    G_5 D_5   
     e( 13 - 13) =     25.02897  eV     1   --> A_1  G_1 D_1   
     e( 14 - 14) =     25.33583  eV     1   --> B_1  G_3 D_2   
     e( 15 - 15) =     26.46051  eV     1   --> B_2  G_4 D_2'  
     e( 16 - 16) =     27.98221  eV     1   -->   ?

 **************************************************************************

 **************************************************************************

                    xk=(  -0.80000,   0.00000,   0.00000  )

     Band symmetry, C_4v (4mm)  point group:

     e(  1 -  1) =     -1.55853  eV     1   --> A_1  G_1 D_1   
     e(  2 -  2) =      2.23376  eV     1   --> B_2  G_4 D_2'  
     e(  3 -  4) =      5.54064  eV     2   --> E    G_5 D_5   
     e(  5 -  5) =      8.98433  eV     1   --> A_1  G_1 D_1   
     e(  6 -  6) =      9.62918  eV     1   --> B_2  G_4 D_2'  
     e(  7 -  8) =     18.63568  eV     2   --> E    G_5 D_5   
     e(  9 -  9) =     20.41379  eV     1   --> A_2  G_2 D_1'  
     e( 10 - 11) =     23.04362  eV     2   --> E    G_5 D_5   
     e( 12 - 12) =     23.27220  eV     1   --> B_2  G_4 D_2'  
     e( 13 - 13) =     24.88490  eV     1   --> B_1  G_3 D_2   
     e( 14 - 14) =     25.25264  eV     1   --> A_1  G_1 D_1   
     e( 15 - 15) =     26.89837  eV     1   --> B_2  G_4 D_2'  
     e( 16 - 16) =     28.33826  eV     1   -->   ?

 **************************************************************************

 **************************************************************************

                    xk=(  -0.83333,   0.00000,   0.00000  )

     Band symmetry, C_4v (4mm)  point group:

     e(  1 -  1) =     -1.28488  eV     1   --> A_1  G_1 D_1   
     e(  2 -  2) =      1.88517  eV     1   --> B_2  G_4 D_2'  
     e(  3 -  4) =      5.48295  eV     2   --> E    G_5 D_5   
     e(  5 -  5) =      8.95781  eV     1   --> A_1  G_1 D_1   
     e(  6 -  6) =      9.48767  eV     1   --> B_2  G_4 D_2'  
     e(  7 -  8) =     18.99815  eV     2   --> E    G_5 D_5   
     e(  9 -  9) =     20.72120  eV     1   --> A_2  G_2 D_1'  
     e( 10 - 11) =     22.71990  eV     2   --> E    G_5 D_5   
     e( 12 - 12) =     23.61627  eV     1   --> B_2  G_4 D_2'  
     e( 13 - 13) =     24.44874  eV     1   --> B_1  G_3 D_2   
     e( 14 - 14) =     25.40062  eV     1   --> A_1  G_1 D_1   
     e( 15 - 15) =     27.35673  eV     1   --> B_2  G_4 D_2'  
     e( 16 - 16) =     28.75318  eV     1   -->   ?

 **************************************************************************

 **************************************************************************

                    xk=(  -0.86667,   0.00000,   0.00000  )

     Band symmetry, C_4v (4mm)  point group:

     e(  1 -  1) =     -1.00211  eV     1   --> A_1  G_1 D_1   
     e(  2 -  2) =      1.54015  eV     1   --> B_2  G_4 D_2'  
     e(  3 -  4) =      5.43550  eV     2   --> E    G_5 D_5   
     e(  5 -  5) =      8.94444  eV     1   --> A_1  G_1 D_1   
     e(  6 -  6) =      9.36348  eV     1   --> B_2  G_4 D_2'  
     e(  7 -  8) =     19.36107  eV     2   --> E    G_5 D_5   
     e(  9 -  9) =     21.04047  eV     1   --> A_2  G_2 D_1'  
     e( 10 - 11) =     22.37563  eV     2   --> E    G_5 D_5   
     e( 12 - 12) =     23.94270  eV     1   --> B_2  G_4 D_2'  
     e( 13 - 13) =     24.02363  eV     1   --> B_1  G_3 D_2   
     e( 14 - 14) =     25.46654  eV     1   --> A_1  G_1 D_1   
     e( 15 - 15) =     27.83210  eV     1   --> B_2  G_4 D_2'  
     e( 16 - 16) =     29.21266  eV     1   -->   ?

 **************************************************************************

 **************************************************************************

                    xk=(  -0.90000,   0.00000,   0.00000  )

     Band symmetry, C_4v (4mm)  point group:

     e(  1 -  1) =     -0.71064  eV     1   --> A_1  G_1 D_1   
     e(  2 -  2) =      1.19973  eV     1   --> B_2  G_4 D_2'  
     e(  3 -  4) =      5.39855  eV     2   --> E    G_5 D_5   
     e(  5 -  5) =      8.94467  eV     1   --> A_1  G_1 D_1   
     e(  6 -  6) =      9.25618  eV     1   --> B_2  G_4 D_2'  
     e(  7 -  8) =     19.72314  eV     2   --> E    G_5 D_5   
     e(  9 -  9) =     21.37185  eV     1   --> A_2  G_2 D_1'  
     e( 10 - 11) =     22.02161  eV     2   --> E    G_5 D_5   
     e( 12 - 12) =     23.60986  eV     1   --> B_1  G_3 D_2   
     e( 13 - 13) =     24.24935  eV     1   --> B_2  G_4 D_2'  
     e( 14 - 14) =     25.45229  eV     1   --> A_1  G_1 D_1   
     e( 15 - 15) =     28.31759  eV     1   --> B_2  G_4 D_2'  
     e( 16 - 16) =     29.70611  eV     1   -->   ?

 **************************************************************************

 **************************************************************************

                    xk=(  -0.93333,   0.00000,   0.00000  )

     Band symmetry, C_4v (4mm)  point group:

     e(  1 -  1) =     -0.41067  eV     1   --> A_1  G_1 D_1   
     e(  2 -  2) =      0.86464  eV     1   --> B_2  G_4 D_2'  
     e(  3 -  4) =      5.37225  eV     2   --> E    G_5 D_5   
     e(  5 -  5) =      8.95911  eV     1   --> A_1  G_1 D_1   
     e(  6 -  6) =      9.16548  eV     1   --> B_2  G_4 D_2'  
     e(  7 -  8) =     20.08062  eV     2   --> E    G_5 D_5   
     e(  9 - 10) =     21.66926  eV     2   --> E    G_5 D_5   
     e( 11 - 11) =     21.71525  eV     1   --> A_2  G_2 D_1'  
     e( 12 - 12) =     23.20764  eV     1   --> B_1  G_3 D_2   
     e( 13 - 13) =     24.53598  eV     1   --> B_2  G_4 D_2'  
     e( 14 - 14) =     25.36745  eV     1   --> A_1  G_1 D_1   
     e( 15 - 15) =     28.80910  eV     1   --> B_2  G_4 D_2'  
     e( 16 - 16) =     30.22428  eV     1   -->   ?

 **************************************************************************

 **************************************************************************

                    xk=(  -0.96667,   0.00000,   0.00000  )

     Band symmetry, C_4v (4mm)  point group:

     e(  1 -  1) =     -0.10268  eV     1   --> A_1  G_1 D_1   
     e(  2 -  2) =      0.53549  eV     1   --> B_2  G_4 D_2'  
     e(  3 -  4) =      5.35638  eV     2   --> E    G_5 D_5   
     e(  5 -  5) =      8.98802  eV     1   --> A_1  G_1 D_1   
     e(  6 -  6) =      9.09081  eV     1   --> B_2  G_4 D_2'  
     e(  7 -  8) =     20.41468  eV     2   --> E    G_5 D_5   
     e(  9 - 10) =     21.33557  eV     2   --> E    G_5 D_5   
     e( 11 - 11) =     22.07062  eV     1   --> A_2  G_2 D_1'  
     e( 12 - 12) =     22.81691  eV     1   --> B_1  G_3 D_2   
     e( 13 - 13) =     24.79761  eV     1   --> B_2  G_4 D_2'  
     e( 14 - 14) =     25.22216  eV     1   --> A_1  G_1 D_1   
     e( 15 - 15) =     29.29276  eV     1   --> B_2  G_4 D_2'  
     e( 16 - 16) =     30.13547  eV     1   --> A_1  G_1 D_1   

 **************************************************************************

 **************************************************************************

                    xk=(  -1.00000,   0.00000,   0.00000  )

     zone border point and non-symmorphic group 
     symmetry decomposition not available

 **************************************************************************

 **************************************************************************

                    xk=(  -1.00000,   0.01667,   0.00000  )

     zone border point and non-symmorphic group 
     symmetry decomposition not available

 **************************************************************************

 **************************************************************************

                    xk=(  -1.00000,   0.03333,  -0.00000  )

     zone border point and non-symmorphic group 
     symmetry decomposition not available

 **************************************************************************

 **************************************************************************

                    xk=(  -1.00000,   0.05000,   0.00000  )

     zone border point and non-symmorphic group 
     symmetry decomposition not available

 **************************************************************************

 **************************************************************************

                    xk=(  -1.00000,   0.06667,   0.00000  )

     zone border point and non-symmorphic group 
     symmetry decomposition not available

 **************************************************************************

 **************************************************************************

                    xk=(  -1.00000,   0.08333,   0.00000  )

     zone border point and non-symmorphic group 
     symmetry decomposition not available

 **************************************************************************

 **************************************************************************

                    xk=(  -1.00000,   0.10000,  -0.00000  )

     zone border point and non-symmorphic group 
     symmetry decomposition not available

 **************************************************************************

 **************************************************************************

                    xk=(  -1.00000,   0.11667,   0.00000  )

     zone border point and non-symmorphic group 
     symmetry decomposition not available

 **************************************************************************

 **************************************************************************

                    xk=(  -1.00000,   0.13333,   0.00000  )

     zone border point and non-symmorphic group 
     symmetry decomposition not available

 **************************************************************************

 **************************************************************************

                    xk=(  -1.00000,   0.15000,   0.00000  )

     zone border point and non-symmorphic group 
     symmetry decomposition not available

 **************************************************************************

 **************************************************************************

                    xk=(  -1.00000,   0.16667,   0.00000  )

     zone border point and non-symmorphic group 
     symmetry decomposition not available

 **************************************************************************

 **************************************************************************

                    xk=(  -1.00000,   0.18333,   0.00000  )

     zone border point and non-symmorphic group 
     symmetry decomposition not available

 **************************************************************************

 **************************************************************************

                    xk=(  -1.00000,   0.20000,   0.00000  )

     zone border point and non-symmorphic group 
     symmetry decomposition not available

 **************************************************************************

 **************************************************************************

                    xk=(  -1.00000,   0.21667,  -0.00000  )

     zone border point and non-symmorphic group 
     symmetry decomposition not available

 **************************************************************************

 **************************************************************************

                    xk=(  -1.00000,   0.23333,   0.00000  )

     zone border point and non-symmorphic group 
     symmetry decomposition not available

 **************************************************************************

 **************************************************************************

                    xk=(  -1.00000,   0.25000,   0.00000  )

     zone border point and non-symmorphic group 
     symmetry decomposition not available

 **************************************************************************

 **************************************************************************

                    xk=(  -1.00000,   0.26667,   0.00000  )

     zone border point and non-symmorphic group 
     symmetry decomposition not available

 **************************************************************************

 **************************************************************************

                    xk=(  -1.00000,   0.28333,   0.00000  )

     zone border point and non-symmorphic group 
     symmetry decomposition not available

 **************************************************************************

 **************************************************************************

                    xk=(  -1.00000,   0.30000,   0.00000  )

     zone border point and non-symmorphic group 
     symmetry decomposition not available

 **************************************************************************

 **************************************************************************

[...]

     Band symmetry, C_3v (3m)   point group:

     e(  1 -  1) =     -3.63613  eV     1   --> A_1  L_1       
     e(  2 -  2) =      3.70774  eV     1   --> A_1  L_1       
     e(  3 -  4) =      7.85721  eV     2   --> E    L_3       
     e(  5 -  5) =     11.61716  eV     1   --> A_1  L_1       
     e(  6 -  7) =     12.53690  eV     2   --> E    L_3       
     e(  8 -  9) =     16.56174  eV     2   --> E    L_3       
     e( 10 - 10) =     17.51683  eV     1   --> A_1  L_1       
     e( 11 - 11) =     19.41805  eV     1   --> A_1  L_1       
     e( 12 - 12) =     23.35957  eV     1   --> A_1  L_1       
     e( 13 - 14) =     25.61277  eV     2   --> E    L_3       
     e( 15 - 16) =     28.29410  eV     2   --> E    L_3       

 **************************************************************************

 **************************************************************************

                    xk=(  -0.26667,   0.26667,   0.26667  )

     Band symmetry, C_3v (3m)   point group:

     e(  1 -  1) =     -3.77597  eV     1   --> A_1  L_1       
     e(  2 -  2) =      4.05599  eV     1   --> A_1  L_1       
     e(  3 -  4) =      7.91607  eV     2   --> E    L_3       
     e(  5 -  5) =     11.65970  eV     1   --> A_1  L_1       
     e(  6 -  7) =     12.56393  eV     2   --> E    L_3       
     e(  8 -  9) =     16.37607  eV     2   --> E    L_3       
     e( 10 - 10) =     17.54420  eV     1   --> A_1  L_1       
     e( 11 - 11) =     19.22400  eV     1   --> A_1  L_1       
     e( 12 - 12) =     22.87673  eV     1   --> A_1  L_1       
     e( 13 - 14) =     25.40045  eV     2   --> E    L_3       
     e( 15 - 16) =     28.56557  eV     2   --> E    L_3       

 **************************************************************************

 **************************************************************************

                    xk=(  -0.25000,   0.25000,   0.25000  )

     Band symmetry, C_3v (3m)   point group:

     e(  1 -  1) =     -3.90855  eV     1   --> A_1  L_1       
     e(  2 -  2) =      4.41023  eV     1   --> A_1  L_1       
     e(  3 -  4) =      7.97882  eV     2   --> E    L_3       
     e(  5 -  5) =     11.70287  eV     1   --> A_1  L_1       
     e(  6 -  7) =     12.57604  eV     2   --> E    L_3       
     e(  8 -  9) =     16.22266  eV     2   --> E    L_3       
     e( 10 - 10) =     17.52529  eV     1   --> A_1  L_1       
     e( 11 - 11) =     19.08171  eV     1   --> A_1  L_1       
     e( 12 - 12) =     22.40934  eV     1   --> A_1  L_1       
     e( 13 - 14) =     25.09578  eV     2   --> E    L_3       
     e( 15 - 16) =     28.94378  eV     2   --> E    L_3       

 **************************************************************************

 **************************************************************************

                    xk=(  -0.23333,   0.23333,   0.23333  )

     Band symmetry, C_3v (3m)   point group:

     e(  1 -  1) =     -4.03351  eV     1   --> A_1  L_1       
     e(  2 -  2) =      4.76952  eV     1   --> A_1  L_1       
     e(  3 -  4) =      8.04531  eV     2   --> E    L_3       
     e(  5 -  5) =     11.74576  eV     1   --> A_1  L_1       
     e(  6 -  7) =     12.57015  eV     2   --> E    L_3       
     e(  8 -  9) =     16.10488  eV     2   --> E    L_3       
     e( 10 - 10) =     17.44749  eV     1   --> A_1  L_1       
     e( 11 - 11) =     19.00138  eV     1   --> A_1  L_1       
     e( 12 - 12) =     21.96367  eV     1   --> A_1  L_1       
     e( 13 - 14) =     24.74564  eV     2   --> E    L_3       
     e( 15 - 16) =     29.38357  eV     2   --> E    L_3       

 **************************************************************************

 **************************************************************************

                    xk=(  -0.21667,   0.21667,   0.21667  )

     Band symmetry, C_3v (3m)   point group:

     e(  1 -  1) =     -4.15062  eV     1   --> A_1  L_1       
     e(  2 -  2) =      5.13274  eV     1   --> A_1  L_1       
     e(  3 -  4) =      8.11523  eV     2   --> E    L_3       
     e(  5 -  5) =     11.78711  eV     1   --> A_1  L_1       
     e(  6 -  7) =     12.54405  eV     2   --> E    L_3       
     e(  8 -  9) =     16.02471  eV     2   --> E    L_3       
     e( 10 - 10) =     17.31066  eV     1   --> A_1  L_1       
     e( 11 - 11) =     18.97752  eV     1   --> A_1  L_1       
     e( 12 - 12) =     21.54718  eV     1   --> A_1  L_1       
     e( 13 - 14) =     24.37581  eV     2   --> E    L_3       
     e( 15 - 15) =     29.17188  eV     1   --> A_1  L_1       
     e( 16 - 16) =     29.85795  eV     1   -->   ?

 **************************************************************************

 **************************************************************************

                    xk=(  -0.20000,   0.20000,   0.20000  )

     Band symmetry, C_3v (3m)   point group:

     e(  1 -  1) =     -4.25963  eV     1   --> A_1  L_1       
     e(  2 -  2) =      5.49879  eV     1   --> A_1  L_1       
     e(  3 -  4) =      8.18820  eV     2   --> E    L_3       
     e(  5 -  5) =     11.82558  eV     1   --> A_1  L_1       
     e(  6 -  7) =     12.49705  eV     2   --> E    L_3       
     e(  8 -  9) =     15.98253  eV     2   --> E    L_3       
     e( 10 - 10) =     17.12815  eV     1   --> A_1  L_1       
     e( 11 - 11) =     18.98901  eV     1   --> A_1  L_1       
     e( 12 - 12) =     21.17094  eV     1   --> A_1  L_1       
     e( 13 - 14) =     24.00045  eV     2   --> E    L_3       
     e( 15 - 15) =     28.85616  eV     1   --> A_1  L_1       
     e( 16 - 16) =     30.35400  eV     1   -->   ?

 **************************************************************************

 **************************************************************************

                    xk=(  -0.18333,   0.18333,   0.18333  )

     Band symmetry, C_3v (3m)   point group:

     e(  1 -  1) =     -4.36039  eV     1   --> A_1  L_1       
     e(  2 -  2) =      5.86627  eV     1   --> A_1  L_1       
     e(  3 -  4) =      8.26366  eV     2   --> E    L_3       
     e(  5 -  5) =     11.85933  eV     1   --> A_1  L_1       
     e(  6 -  7) =     12.43030  eV     2   --> E    L_3       
     e(  8 -  9) =     15.97679  eV     2   --> E    L_3       
     e( 10 - 10) =     16.91637  eV     1   --> A_1  L_1       
     e( 11 - 11) =     19.00561  eV     1   --> A_1  L_1       
     e( 12 - 12) =     20.85126  eV     1   --> A_1  L_1       
     e( 13 - 14) =     23.62782  eV     2   --> E    L_3       
     e( 15 - 15) =     28.50566  eV     1   --> A_1  L_1       
     e( 16 - 16) =     30.86184  eV     1   -->   ?

 **************************************************************************

 **************************************************************************

                    xk=(  -0.16667,   0.16667,   0.16667  )

     Band symmetry, C_3v (3m)   point group:

     e(  1 -  1) =     -4.45270  eV     1   --> A_1  L_1       
     e(  2 -  2) =      6.23358  eV     1   --> A_1  L_1       
     e(  3 -  4) =      8.34102  eV     2   --> E    L_3       
     e(  5 -  5) =     11.88621  eV     1   --> A_1  L_1       
     e(  6 -  7) =     12.34671  eV     2   --> E    L_3       
     e(  8 -  9) =     16.00423  eV     2   --> E    L_3       
     e( 10 - 10) =     16.68893  eV     1   --> A_1  L_1       
     e( 11 - 11) =     18.99378  eV     1   --> A_1  L_1       
     e( 12 - 12) =     20.61216  eV     1   --> A_1  L_1       
     e( 13 - 14) =     23.26373  eV     2   --> E    L_3       
     e( 15 - 15) =     28.14538  eV     1   --> A_1  L_1       
     e( 16 - 16) =     31.37939  eV     1   -->   ?

 **************************************************************************

 **************************************************************************

                    xk=(  -0.15000,   0.15000,   0.15000  )

     Band symmetry, C_3v (3m)   point group:

     e(  1 -  1) =     -4.53655  eV     1   --> A_1  L_1       
     e(  2 -  2) =      6.59861  eV     1   --> A_1  L_1       
     e(  3 -  4) =      8.41930  eV     2   --> E    L_3       
     e(  5 -  5) =     11.90364  eV     1   --> A_1  L_1       
     e(  6 -  7) =     12.25004  eV     2   --> E    L_3       
     e(  8 -  9) =     16.05989  eV     2   --> E    L_3       
     e( 10 - 10) =     16.45597  eV     1   --> A_1  L_1       
     e( 11 - 11) =     18.92444  eV     1   --> A_1  L_1       
     e( 12 - 12) =     20.47330  eV     1   --> A_1  L_1       
     e( 13 - 14) =     22.91182  eV     2   --> E    L_3       
     e( 15 - 15) =     27.78784  eV     1   --> A_1  L_1       
     e( 16 - 16) =     31.89163  eV     1   -->   ?

 **************************************************************************

 **************************************************************************

                    xk=(  -0.13333,   0.13333,   0.13333  )

     Band symmetry, C_3v (3m)   point group:

     e(  1 -  1) =     -4.61179  eV     1   --> A_1  L_1       
     e(  2 -  2) =      6.95884  eV     1   --> A_1  L_1       
     e(  3 -  4) =      8.49748  eV     2   --> E    L_3       
     e(  5 -  5) =     11.90886  eV     1   --> A_1  L_1       
     e(  6 -  7) =     12.14510  eV     2   --> E    L_3       
     e(  8 -  9) =     16.13825  eV     2   --> E    L_3       
     e( 10 - 10) =     16.22549  eV     1   --> A_1  L_1       
     e( 11 - 11) =     18.79211  eV     1   --> A_1  L_1       
     e( 12 - 12) =     20.43681  eV     1   --> A_1  L_1       
     e( 13 - 14) =     22.57617  eV     2   --> E    L_3       
     e( 15 - 15) =     27.44206  eV     1   --> A_1  L_1       
     e( 16 - 16) =     32.39660  eV     1   -->   ?

 **************************************************************************

 **************************************************************************

                    xk=(  -0.11667,   0.11667,   0.11667  )

     Band symmetry, C_3v (3m)   point group:

     e(  1 -  1) =     -4.67834  eV     1   --> A_1  L_1       
     e(  2 -  2) =      7.31090  eV     1   --> A_1  L_1       
     e(  3 -  4) =      8.57420  eV     2   --> E    L_3       
     e(  5 -  5) =     11.89911  eV     1   --> A_1  L_1       
     e(  6 -  7) =     12.03679  eV     2   --> E    L_3       
     e(  8 -  8) =     16.00448  eV     1   --> A_1  L_1       
     e(  9 - 10) =     16.23315  eV     2   --> E    L_3       
     e( 11 - 11) =     18.61835  eV     1   --> A_1  L_1       
     e( 12 - 12) =     20.47762  eV     1   --> A_1  L_1       
     e( 13 - 14) =     22.26052  eV     2   --> E    L_3       
     e( 15 - 15) =     27.11435  eV     1   --> A_1  L_1       
     e( 16 - 16) =     32.88635  eV     1   -->   ?

 **************************************************************************

 **************************************************************************

                    xk=(  -0.10000,   0.10000,   0.10000  )

     Band symmetry, C_3v (3m)   point group:

     e(  1 -  1) =     -4.73613  eV     1   --> A_1  L_1       
     e(  2 -  2) =      7.65036  eV     1   --> A_1  L_1       
     e(  3 -  4) =      8.64783  eV     2   --> E    L_3       
     e(  5 -  5) =     11.87220  eV     1   --> A_1  L_1       
     e(  6 -  7) =     11.92995  eV     2   --> E    L_3       
     e(  8 -  8) =     15.79953  eV     1   --> A_1  L_1       
     e(  9 - 10) =     16.33809  eV     2   --> E    L_3       
     e( 11 - 11) =     18.43158  eV     1   --> A_1  L_1       
     e( 12 - 12) =     20.56401  eV     1   --> A_1  L_1       
     e( 13 - 14) =     21.96903  eV     2   --> E    L_3       
     e( 15 - 15) =     26.81038  eV     1   --> A_1  L_1       
     e( 16 - 16) =     33.35017  eV     1   -->   ?

 **************************************************************************

 **************************************************************************

                    xk=(  -0.08333,   0.08333,   0.08333  )

     Band symmetry, C_3v (3m)   point group:

     e(  1 -  1) =     -4.78512  eV     1   --> A_1  L_1       
     e(  2 -  2) =      7.97117  eV     1   --> A_1  L_1       
     e(  3 -  4) =      8.71637  eV     2   --> E    L_3       
     e(  5 -  5) =     11.82742  eV     1   --> A_1  L_1       
     e(  6 -  7) =     11.82923  eV     2   --> E    L_3       
     e(  8 -  8) =     15.61683  eV     1   --> A_1  L_1       
     e(  9 - 10) =     16.44619  eV     2   --> E    L_3       
     e( 11 - 11) =     18.25283  eV     1   --> A_1  L_1       
     e( 12 - 12) =     20.67119  eV     1   --> A_1  L_1       
     e( 13 - 14) =     21.70641  eV     2   --> E    L_3       
     e( 15 - 15) =     26.53590  eV     1   --> A_1  L_1       
     e( 16 - 16) =     33.77322  eV     1   -->   ?

 **************************************************************************

 **************************************************************************

                    xk=(  -0.06667,   0.06667,   0.06667  )

     Band symmetry, C_3v (3m)   point group:

     e(  1 -  1) =     -4.82525  eV     1   --> A_1  L_1       
     e(  2 -  2) =      8.26501  eV     1   --> A_1  L_1       
     e(  3 -  4) =      8.77755  eV     2   --> E    L_3       
     e(  5 -  6) =     11.73907  eV     2   --> E    L_3       
     e(  7 -  7) =     11.76685  eV     1   --> A_1  L_1       
     e(  8 -  8) =     15.46179  eV     1   --> A_1  L_1       
     e(  9 - 10) =     16.55022  eV     2   --> E    L_3       
     e( 11 - 11) =     18.09513  eV     1   --> A_1  L_1       
     e( 12 - 12) =     20.78168  eV     1   --> A_1  L_1       
     e( 13 - 14) =     21.47819  eV     2   --> E    L_3       
     e( 15 - 15) =     26.29714  eV     1   --> A_1  L_1       
     e( 16 - 16) =     34.13614  eV     1   -->   ?

 **************************************************************************

 **************************************************************************

                    xk=(  -0.05000,   0.05000,   0.05000  )

     Band symmetry, C_3v (3m)   point group:

     e(  1 -  1) =     -4.85650  eV     1   --> A_1  L_1       
     e(  2 -  2) =      8.52050  eV     1   --> A_1  L_1       
     e(  3 -  4) =      8.82847  eV     2   --> E    L_3       
     e(  5 -  6) =     11.66348  eV     2   --> E    L_3       
     e(  7 -  7) =     11.69668  eV     1   --> A_1  L_1       
     e(  8 -  8) =     15.33817  eV     1   --> A_1  L_1       
     e(  9 - 10) =     16.64212  eV     2   --> E    L_3       
     e( 11 - 11) =     17.96621  eV     1   --> A_1  L_1       
     e( 12 - 12) =     20.88242  eV     1   --> A_1  L_1       
     e( 13 - 14) =     21.29032  eV     2   --> E    L_3       
     e( 15 - 15) =     26.09987  eV     1   --> A_1  L_1       
     e( 16 - 16) =     34.41615  eV     1   -->   ?

 **************************************************************************

 **************************************************************************

                    xk=(  -0.03333,   0.03333,   0.03333  )

     Band symmetry, C_3v (3m)   point group:

     e(  1 -  1) =     -4.87884  eV     1   --> A_1  L_1       
     e(  2 -  2) =      8.72280  eV     1   --> A_1  L_1       
     e(  3 -  4) =      8.86749  eV     2   --> E    L_3       
     e(  5 -  6) =     11.60671  eV     2   --> E    L_3       
     e(  7 -  7) =     11.62879  eV     1   --> A_1  L_1       
     e(  8 -  8) =     15.24975  eV     1   --> A_1  L_1       
     e(  9 - 10) =     16.71538  eV     2   --> E    L_3       
     e( 11 - 11) =     17.87128  eV     1   --> A_1  L_1       
     e( 12 - 12) =     20.96295  eV     1   --> A_1  L_1       
     e( 13 - 14) =     21.14987  eV     2   --> E    L_3       
     e( 15 - 15) =     25.95380  eV     1   --> A_1  L_1       
     e( 16 - 16) =     34.60732  eV     1   -->   ?

 **************************************************************************

 **************************************************************************

                    xk=(  -0.01667,   0.01667,   0.01667  )

     Band symmetry, C_3v (3m)   point group:

     e(  1 -  1) =     -4.89225  eV     1   --> A_1  L_1       
     e(  2 -  2) =      8.85415  eV     1   --> A_1  L_1       
     e(  3 -  4) =      8.89189  eV     2   --> E    L_3       
     e(  5 -  6) =     11.57114  eV     2   --> E    L_3       
     e(  7 -  7) =     11.57788  eV     1   --> A_1  L_1       
     e(  8 -  8) =     15.19608  eV     1   --> A_1  L_1       
     e(  9 - 10) =     16.76228  eV     2   --> E    L_3       
     e( 11 - 11) =     17.81310  eV     1   --> A_1  L_1       
     e( 12 - 12) =     21.01488  eV     1   --> A_1  L_1       
     e( 13 - 14) =     21.06259  eV     2   --> E    L_3       
     e( 15 - 15) =     25.86208  eV     1   --> A_1  L_1       
     e( 16 - 16) =     34.71260  eV     1   -->   ?

 **************************************************************************

 **************************************************************************

                    xk=(   0.00000,   0.00000,   0.00000  )

     point group O_h (m-3m) 
     there are 10 classes
     the character table:

       E     8C3   3C2   6C4   6C2'  i     8S6   3s_h  6S4   6s_d 
A_1g   1.00  1.00  1.00  1.00  1.00  1.00  1.00  1.00  1.00  1.00
A_2g   1.00  1.00  1.00 -1.00 -1.00  1.00  1.00  1.00 -1.00 -1.00
E_g    2.00 -1.00  2.00  0.00  0.00  2.00 -1.00  2.00  0.00  0.00
T_1g   3.00  0.00 -1.00  1.00 -1.00  3.00  0.00 -1.00  1.00 -1.00
T_2g   3.00  0.00 -1.00 -1.00  1.00  3.00  0.00 -1.00 -1.00  1.00
A_1u   1.00  1.00  1.00  1.00  1.00 -1.00 -1.00 -1.00 -1.00 -1.00
A_2u   1.00  1.00  1.00 -1.00 -1.00 -1.00 -1.00 -1.00  1.00  1.00
E_u    2.00 -1.00  2.00  0.00  0.00 -2.00  1.00 -2.00  0.00  0.00
T_1u   3.00  0.00 -1.00  1.00 -1.00 -3.00  0.00  1.00 -1.00  1.00
T_2u   3.00  0.00 -1.00 -1.00  1.00 -3.00  0.00  1.00  1.00 -1.00

     the symmetry operations in each class and the name of the first element:

     E        1
                                                                 
     8C3     17   19   20   18   24   21   22   23
                                                                 
     3C2      2    4    3
                                                                 
     6C4      7    8   15   16   12   11
                                                                 
     6C2'     5    6   14   13   10    9
                                                                 
     i       25
                                                                 
     8S6     41   43   44   42   48   45   46   47
                                                                 
     3s_h    26   28   27
                                                                 
     6S4     31   32   39   40   36   35
                                                                 
     6s_d    29   30   38   37   34   33
                                                                 

     Band symmetry, O_h (m-3m)  point group:

     e(  1 -  1) =     -4.89672  eV     1   --> A_1g G_1   G_1+
     e(  2 -  4) =      8.90039  eV     3   --> T_2g G_25' G_5+
     e(  5 -  7) =     11.55971  eV     3   --> T_1u G_15  G_4-
     e(  8 -  8) =     15.18209  eV     1   --> A_2u G_2'  G_2-
     e(  9 - 10) =     16.78379  eV     2   --> E_u  G_12' G_3-
     e( 11 - 11) =     17.79365  eV     1   --> A_1g G_1   G_1+
     e( 12 - 14) =     21.03304  eV     3   --> T_2g G_25' G_5+
     e( 15 - 15) =     25.83743  eV     1   --> A_2u G_2'  G_2-
     e( 16 - 16) =     34.74588  eV     1   -->   ?

 **************************************************************************

     BANDS        :     2.46s CPU         2.60s WALL


   This run was terminated on:   5: 5:53  23Dec2018            

=------------------------------------------------------------------------------=
   JOB DONE.
=------------------------------------------------------------------------------=
